/*--------------------------------*- C++ -*----------------------------------*\
| =========                 |                                                 |
| \\      /  F ield         | OpenFOAM: The Open Source CFD Toolbox           |
|  \\    /   O peration     | Version:  2312                                  |
|   \\  /    A nd           | Website:  www.openfoam.com                      |
|    \\/     M anipulation  |                                                 |
\*---------------------------------------------------------------------------*/
FoamFile
{
    version     2.0;
    format      ascii;
    arch        "LSB;label=32;scalar=64";
    class       volScalarField;
    location    "0.067";
    object      p;
}
// * * * * * * * * * * * * * * * * * * * * * * * * * * * * * * * * * * * * * //

dimensions      [1 -1 -2 0 0 0 0];

internalField   nonuniform List<scalar> 
100
(
27632.5
27502.9
27342.8
27305
26940.5
27136
26502.3
26990
26052.7
26841.7
25625.1
26659.4
25253.8
26415.9
24961.2
26101.3
24747.9
25728.5
24592.9
25328.8
24463.2
24937.2
24329
24579.4
24173.9
24265.3
23996.3
23992.3
23804.3
23751.8
23608.1
23535.8
23416.3
23338.9
23234.4
23159
23065.9
22995.7
22912.7
22849.5
22776.2
22721.2
22657.8
22611.5
22558.1
22521
22477.4
22449.6
22415.9
22397.3
22373.7
22365.4
22354.3
22361.6
22374.1
22419
22497.3
22656.4
22929.9
23398.9
24110.9
25098.3
26277.1
27516.5
28636
29546.4
30200.2
30650.8
30930.4
31114.4
31218.7
31293.5
31332.3
31368.2
31384.8
31407.6
31417.2
31435.8
31443.6
31460.9
31468.3
31485.4
31492.5
31509.6
31516
31533
31538.5
31555.2
31559.7
31575.6
31579.7
31594
31599.1
31610.2
31618.6
31623.7
31637.7
31633
31654.9
31633.5
)
;

boundaryField
{
    sides
    {
        type            zeroGradient;
    }
    empty
    {
        type            empty;
    }
}


// ************************************************************************* //
