/*--------------------------------*- C++ -*----------------------------------*\
| =========                 |                                                 |
| \\      /  F ield         | OpenFOAM: The Open Source CFD Toolbox           |
|  \\    /   O peration     | Version:  2312                                  |
|   \\  /    A nd           | Website:  www.openfoam.com                      |
|    \\/     M anipulation  |                                                 |
\*---------------------------------------------------------------------------*/
FoamFile
{
    version     2.0;
    format      ascii;
    arch        "LSB;label=32;scalar=64";
    class       volScalarField;
    location    "0.067";
    object      T;
}
// * * * * * * * * * * * * * * * * * * * * * * * * * * * * * * * * * * * * * //

dimensions      [0 0 0 1 0 0 0];

internalField   nonuniform List<scalar> 
100
(
230.528
229.559
228.304
228.339
225.27
227.35
221.992
226.652
218.786
226.092
215.977
225.402
213.838
224.328
212.511
222.753
211.94
220.757
211.886
218.572
212.024
216.469
212.076
214.633
211.894
213.124
211.466
211.9
210.86
210.884
210.164
210.007
209.451
209.231
208.771
208.547
208.159
207.962
207.644
207.494
207.249
207.16
206.991
206.972
206.882
206.934
206.919
207.037
207.088
207.26
207.363
207.575
207.717
207.961
208.148
208.452
208.754
209.267
209.956
211.113
212.766
215.119
217.902
220.902
223.561
225.743
227.207
228.191
228.659
228.917
228.893
228.831
228.604
228.409
228.098
227.84
227.487
227.192
226.81
226.485
226.076
225.724
225.285
224.904
224.434
224.027
223.528
223.101
222.583
222.146
221.63
221.194
220.709
220.28
219.861
219.44
219.122
218.699
218.511
218.077
)
;

boundaryField
{
    sides
    {
        type            zeroGradient;
    }
    empty
    {
        type            empty;
    }
}


// ************************************************************************* //
