/*--------------------------------*- C++ -*----------------------------------*\
| =========                 |                                                 |
| \\      /  F ield         | OpenFOAM: The Open Source CFD Toolbox           |
|  \\    /   O peration     | Version:  2312                                  |
|   \\  /    A nd           | Website:  www.openfoam.com                      |
|    \\/     M anipulation  |                                                 |
\*---------------------------------------------------------------------------*/
FoamFile
{
    version     2.0;
    format      ascii;
    arch        "LSB;label=32;scalar=64";
    class       volScalarField;
    location    "0.067";
    object      thermo:e;
}
// * * * * * * * * * * * * * * * * * * * * * * * * * * * * * * * * * * * * * //

dimensions      [0 2 -2 0 0 0 0];

internalField   nonuniform List<scalar> 
100
(
165796
165099
164196
164222
162014
163510
159656
163008
157351
162605
155331
162109
153792
161337
152838
160204
152427
158768
152388
157197
152488
155684
152525
154364
152394
153279
152086
152399
151651
151668
151150
151037
150637
150479
150148
149987
149708
149567
149338
149230
149053
148989
148868
148854
148789
148827
148816
148901
148937
149061
149136
149288
149390
149566
149700
149918
150136
150505
151000
151833
153021
154714
156715
158873
160785
162354
163408
164115
164451
164637
164620
164575
164412
164272
164048
163862
163608
163396
163122
162888
162594
162340
162025
161751
161413
161120
160761
160454
160082
159768
159396
159083
158734
158426
158124
157821
157593
157288
157153
156841
)
;

boundaryField
{
    sides
    {
        type            zeroGradient;
    }
    empty
    {
        type            empty;
    }
}


// ************************************************************************* //
