/*--------------------------------*- C++ -*----------------------------------*\
| =========                 |                                                 |
| \\      /  F ield         | OpenFOAM: The Open Source CFD Toolbox           |
|  \\    /   O peration     | Version:  2312                                  |
|   \\  /    A nd           | Website:  www.openfoam.com                      |
|    \\/     M anipulation  |                                                 |
\*---------------------------------------------------------------------------*/
FoamFile
{
    version     2.0;
    format      ascii;
    arch        "LSB;label=32;scalar=64";
    class       volVectorField;
    location    "0.067";
    object      U;
}
// * * * * * * * * * * * * * * * * * * * * * * * * * * * * * * * * * * * * * //

dimensions      [0 1 -1 0 0 0 0];

internalField   nonuniform List<vector> 
100
(
(190.141 0 0)
(191.183 0 0)
(191.951 0 0)
(193.431 0 0)
(194.013 0 0)
(195.598 0 0)
(196.024 0 0)
(197.651 0 0)
(198.034 0 0)
(199.594 0 0)
(200.082 0 0)
(201.445 0 0)
(202.174 0 0)
(203.242 0 0)
(204.287 0 0)
(205.039 0 0)
(206.375 0 0)
(206.886 0 0)
(208.401 0 0)
(208.806 0 0)
(210.351 0 0)
(210.786 0 0)
(212.241 0 0)
(212.792 0 0)
(214.099 0 0)
(214.784 0 0)
(215.944 0 0)
(216.734 0 0)
(217.779 0 0)
(218.626 0 0)
(219.59 0 0)
(220.452 0 0)
(221.357 0 0)
(222.205 0 0)
(223.06 0 0)
(223.875 0 0)
(224.679 0 0)
(225.447 0 0)
(226.194 0 0)
(226.907 0 0)
(227.591 0 0)
(228.24 0 0)
(228.857 0 0)
(229.437 0 0)
(229.982 0 0)
(230.49 0 0)
(230.962 0 0)
(231.397 0 0)
(231.797 0 0)
(232.157 0 0)
(232.479 0 0)
(232.752 0 0)
(232.966 0 0)
(233.089 0 0)
(233.068 0 0)
(232.794 0 0)
(232.078 0 0)
(230.597 0 0)
(227.887 0 0)
(223.403 0 0)
(216.791 0 0)
(208.247 0 0)
(198.677 0 0)
(189.389 0 0)
(181.483 0 0)
(175.488 0 0)
(171.354 0 0)
(168.72 0 0)
(167.149 0 0)
(166.276 0 0)
(165.838 0 0)
(165.66 0 0)
(165.64 0 0)
(165.71 0 0)
(165.836 0 0)
(165.993 0 0)
(166.171 0 0)
(166.36 0 0)
(166.559 0 0)
(166.764 0 0)
(166.975 0 0)
(167.192 0 0)
(167.414 0 0)
(167.644 0 0)
(167.878 0 0)
(168.121 0 0)
(168.369 0 0)
(168.627 0 0)
(168.891 0 0)
(169.162 0 0)
(169.443 0 0)
(169.728 0 0)
(170.028 0 0)
(170.325 0 0)
(170.648 0 0)
(170.962 0 0)
(171.314 0 0)
(171.652 0 0)
(172.046 0 0)
(172.382 0 0)
)
;

boundaryField
{
    sides
    {
        type            mywaveTransmissive;
        gamma           1.4;
        value           nonuniform List<vector> 2((172.462 0 0) (189.572 0 0));
    }
    empty
    {
        type            empty;
    }
}


// ************************************************************************* //
