/*--------------------------------*- C++ -*----------------------------------*\
| =========                 |                                                 |
| \\      /  F ield         | OpenFOAM: The Open Source CFD Toolbox           |
|  \\    /   O peration     | Version:  2212                                  |
|   \\  /    A nd           | Website:  www.openfoam.com                      |
|    \\/     M anipulation  |                                                 |
\*---------------------------------------------------------------------------*/
FoamFile
{
    version     2.0;
    format      ascii;
    arch        "LSB;label=32;scalar=64";
    class       volScalarField;
    location    "0.002";
    object      p;
}
// * * * * * * * * * * * * * * * * * * * * * * * * * * * * * * * * * * * * * //

dimensions      [1 -1 -2 0 0 0 0];

internalField   nonuniform List<scalar> 
100
(
99185.7
99185.7
99185.7
99185.7
99185.7
99185.7
99185.7
99185.7
99185.7
99185.7
99185.7
99185.7
99185.7
99185.7
99185.7
99185.7
99185.7
99185.7
99185.7
99185.7
99185.7
99185.7
99185.7
99185.7
99185.7
99185.7
99185.7
99185.7
99185.7
99185.7
99185.7
99185.7
99185.7
99185.7
99185.7
99185.7
99185.7
99185.7
99184.4
99161.5
98937.3
97714.1
93900.5
86585.1
76898.2
66782.9
57368.2
49352.9
42444.3
36072.5
31128.8
27080.8
25962.7
26694.4
28468.6
28489.3
25981.8
28156.2
30638.3
32578.5
24825.3
11339.8
9932.21
9918.56
9918.52
9918.52
9918.52
9918.52
9918.52
9918.52
9918.52
9918.52
9918.52
9918.52
9918.52
9918.52
9918.52
9918.52
9918.52
9918.52
9918.52
9918.52
9918.52
9918.52
9918.52
9918.52
9918.52
9918.52
9918.52
9918.52
9918.52
9918.52
9918.52
9918.52
9918.52
9918.52
9918.52
9918.52
9918.52
9918.52
)
;

boundaryField
{
    sides
    {
        type            zeroGradient;
    }
    empty
    {
        type            empty;
    }
}


// ************************************************************************* //
