/*--------------------------------*- C++ -*----------------------------------*\
| =========                 |                                                 |
| \\      /  F ield         | OpenFOAM: The Open Source CFD Toolbox           |
|  \\    /   O peration     | Version:  2312                                  |
|   \\  /    A nd           | Website:  www.openfoam.com                      |
|    \\/     M anipulation  |                                                 |
\*---------------------------------------------------------------------------*/
FoamFile
{
    version     2.0;
    format      ascii;
    arch        "LSB;label=32;scalar=64";
    class       volScalarField;
    location    "0.002";
    object      p;
}
// * * * * * * * * * * * * * * * * * * * * * * * * * * * * * * * * * * * * * //

dimensions      [1 -1 -2 0 0 0 0];

internalField   nonuniform List<scalar> 
100
(
110318
110318
110318
110318
110318
110318
110318
110318
110318
110318
110318
110318
110318
110318
110318
110318
110318
110318
110318
110318
110318
110318
110318
110318
110318
110318
110318
110318
110318
110318
110317
110317
110313
110302
110266
110165
109914
109359
108266
106351
103358
99146.5
93749
87363.2
80294.1
72875.1
65422.6
58206.7
51453.6
45348.2
40067
35797.9
32727.7
30892.3
30046.6
29732.6
29619.8
29523.2
29161.6
27833.9
24541.7
19251.2
13886.9
10574.7
9313.86
8973.14
8895.17
8878.74
8875.48
8874.88
8874.78
8874.76
8874.76
8874.76
8874.76
8874.76
8874.76
8874.76
8874.76
8874.76
8874.76
8874.76
8874.76
8874.76
8874.76
8874.76
8874.76
8874.76
8874.76
8874.76
8874.76
8874.76
8874.76
8874.76
8874.76
8874.76
8874.76
8874.76
8874.76
8874.76
)
;

boundaryField
{
    sides
    {
        type            zeroGradient;
    }
    empty
    {
        type            empty;
    }
}


// ************************************************************************* //
