/*--------------------------------*- C++ -*----------------------------------*\
| =========                 |                                                 |
| \\      /  F ield         | OpenFOAM: The Open Source CFD Toolbox           |
|  \\    /   O peration     | Version:  2312                                  |
|   \\  /    A nd           | Website:  www.openfoam.com                      |
|    \\/     M anipulation  |                                                 |
\*---------------------------------------------------------------------------*/
FoamFile
{
    version     2.0;
    format      ascii;
    arch        "LSB;label=32;scalar=64";
    class       volScalarField;
    location    "0.002";
    object      rho;
}
// * * * * * * * * * * * * * * * * * * * * * * * * * * * * * * * * * * * * * //

dimensions      [1 -3 0 0 0 0 0];

internalField   nonuniform List<scalar> 
100
(
1.116
1.116
1.116
1.116
1.116
1.116
1.116
1.116
1.116
1.116
1.116
1.116
1.116
1.116
1.116
1.116
1.116
1.116
1.116
1.116
1.116
1.116
1.116
1.116
1.116
1.116
1.116
1.116
1.116
1.116
1.116
1.11599
1.11597
1.11588
1.11562
1.1149
1.11308
1.10905
1.10108
1.08703
1.06485
1.03318
0.991845
0.941805
0.884879
0.823242
0.759127
0.694628
0.631707
0.572166
0.517859
0.470683
0.432044
0.400797
0.373292
0.346345
0.319932
0.296013
0.275165
0.253923
0.22557
0.18793
0.150304
0.125608
0.115403
0.112473
0.111783
0.111636
0.111607
0.111601
0.1116
0.1116
0.1116
0.1116
0.1116
0.1116
0.1116
0.1116
0.1116
0.1116
0.1116
0.1116
0.1116
0.1116
0.1116
0.1116
0.1116
0.1116
0.1116
0.1116
0.1116
0.1116
0.1116
0.1116
0.1116
0.1116
0.1116
0.1116
0.1116
0.1116
)
;

boundaryField
{
    sides
    {
        type            zeroGradient;
    }
    empty
    {
        type            empty;
    }
}


// ************************************************************************* //
