/*--------------------------------*- C++ -*----------------------------------*\
| =========                 |                                                 |
| \\      /  F ield         | OpenFOAM: The Open Source CFD Toolbox           |
|  \\    /   O peration     | Version:  2312                                  |
|   \\  /    A nd           | Website:  www.openfoam.com                      |
|    \\/     M anipulation  |                                                 |
\*---------------------------------------------------------------------------*/
FoamFile
{
    version     2.0;
    format      ascii;
    arch        "LSB;label=32;scalar=64";
    class       volScalarField;
    location    "0.002";
    object      thermo:e;
}
// * * * * * * * * * * * * * * * * * * * * * * * * * * * * * * * * * * * * * //

dimensions      [0 2 -2 0 0 0 0];

internalField   nonuniform List<scalar> 
100
(
247130
247130
247130
247130
247130
247130
247130
247130
247130
247130
247130
247130
247130
247130
247130
247130
247130
247130
247130
247130
247130
247130
247130
247130
247130
247130
247130
247130
247130
247130
247130
247129
247127
247119
247096
247032
246872
246517
245819
244593
242662
239908
236302
231906
226852
221308
215456
209491
203632
198145
193428
190140
189379
192695
201230
214620
231456
249344
264950
274042
272000
256099
230984
210474
201771
199454
198942
198836
198815
198811
198810
198810
198810
198810
198810
198810
198810
198810
198810
198810
198810
198810
198810
198810
198810
198810
198810
198810
198810
198810
198810
198810
198810
198810
198810
198810
198810
198810
198810
198810
)
;

boundaryField
{
    sides
    {
        type            zeroGradient;
    }
    empty
    {
        type            empty;
    }
}


// ************************************************************************* //
