/*--------------------------------*- C++ -*----------------------------------*\
| =========                 |                                                 |
| \\      /  F ield         | OpenFOAM: The Open Source CFD Toolbox           |
|  \\    /   O peration     | Version:  2312                                  |
|   \\  /    A nd           | Website:  www.openfoam.com                      |
|    \\/     M anipulation  |                                                 |
\*---------------------------------------------------------------------------*/
FoamFile
{
    version     2.0;
    format      ascii;
    arch        "LSB;label=32;scalar=64";
    class       volScalarField;
    location    "0.002";
    object      thermo:e;
}
// * * * * * * * * * * * * * * * * * * * * * * * * * * * * * * * * * * * * * //

dimensions      [0 2 -2 0 0 0 0];

internalField   nonuniform List<scalar> 
100
(
213576
213576
213576
213576
213576
213576
213576
213576
213576
213576
213576
213576
213576
213576
213576
213576
213576
213576
213576
213576
213576
213576
213576
213576
213576
213576
213576
213576
213576
213576
213576
213576
213576
213573
213565
213539
213467
213287
212891
212123
210802
208771
205947
202344
198064
193265
188141
182908
177817
173197
169572
167839
169519
176544
189566
207818
229300
250689
267589
275249
270173
253198
232959
220108
215306
213986
213667
213595
213580
213577
213576
213576
213576
213576
213576
213576
213576
213576
213576
213576
213576
213576
213576
213576
213576
213576
213576
213576
213576
213576
213576
213576
213576
213576
213576
213576
213576
213576
213576
213576
)
;

boundaryField
{
    sides
    {
        type            zeroGradient;
    }
    empty
    {
        type            empty;
    }
}


// ************************************************************************* //
