/*--------------------------------*- C++ -*----------------------------------*\
| =========                 |                                                 |
| \\      /  F ield         | OpenFOAM: The Open Source CFD Toolbox           |
|  \\    /   O peration     | Version:  2212                                  |
|   \\  /    A nd           | Website:  www.openfoam.com                      |
|    \\/     M anipulation  |                                                 |
\*---------------------------------------------------------------------------*/
FoamFile
{
    version     2.0;
    format      ascii;
    arch        "LSB;label=32;scalar=64";
    class       volVectorField;
    location    "0.002";
    object      U;
}
// * * * * * * * * * * * * * * * * * * * * * * * * * * * * * * * * * * * * * //

dimensions      [0 1 -1 0 0 0 0];

internalField   nonuniform List<vector> 
100
(
(-3.48896e-14 0 0)
(-1.10259e-13 0 0)
(-3.73347e-13 0 0)
(-5.53469e-13 0 0)
(-5.94349e-13 0 0)
(-2.96221e-13 0 0)
(1.06137e-13 0 0)
(4.15355e-15 0 0)
(-2.52511e-13 0 0)
(6.13643e-14 0 0)
(1.6104e-13 0 0)
(-1.1735e-13 0 0)
(-2.58296e-13 0 0)
(-1.01394e-13 0 0)
(2.39445e-13 0 0)
(3.20564e-14 0 0)
(-1.24121e-13 0 0)
(1.24581e-13 0 0)
(1.65609e-13 0 0)
(4.34087e-14 0 0)
(-9.38928e-14 0 0)
(-2.1442e-13 0 0)
(-9.87126e-14 0 0)
(6.36376e-14 0 0)
(2.20926e-14 0 0)
(-5.90105e-14 0 0)
(5.6277e-14 0 0)
(3.25036e-14 0 0)
(-1.62634e-13 0 0)
(-1.32149e-13 0 0)
(-8.76543e-14 0 0)
(-3.64022e-14 0 0)
(1.40782e-13 0 0)
(5.82711e-12 0 0)
(1.0003e-09 0 0)
(1.10042e-07 0 0)
(7.45503e-06 0 0)
(0.000305281 0 0)
(0.007406 0 0)
(0.105054 0 0)
(0.875716 0 0)
(4.43931 0 0)
(14.6254 0 0)
(34.1902 0 0)
(62.1222 0 0)
(94.8672 0 0)
(129.073 0 0)
(163.988 0 0)
(198.564 0 0)
(230.586 0 0)
(263.397 0 0)
(289.022 0 0)
(300.198 0 0)
(294.88 0 0)
(289.876 0 0)
(281.346 0 0)
(273.647 0 0)
(285.654 0 0)
(310.331 0 0)
(319.043 0 0)
(226.089 0 0)
(48.1602 0 0)
(1.38888 0 0)
(0.00750928 0 0)
(1.59485e-05 0 0)
(2.94395e-08 0 0)
(7.21667e-11 0 0)
(4.16011e-13 0 0)
(2.1684e-13 0 0)
(3.34385e-14 0 0)
(1.40501e-13 0 0)
(2.45902e-13 0 0)
(7.84663e-14 0 0)
(-6.53438e-15 0 0)
(-6.96832e-15 0 0)
(4.09067e-14 0 0)
(1.57779e-13 0 0)
(5.24061e-14 0 0)
(-1.44493e-13 0 0)
(-9.36333e-14 0 0)
(-2.12894e-13 0 0)
(-1.14319e-13 0 0)
(-3.72033e-15 0 0)
(-2.92736e-14 0 0)
(6.80054e-14 0 0)
(4.49269e-14 0 0)
(1.97571e-13 0 0)
(1.29846e-13 0 0)
(2.12124e-14 0 0)
(2.03323e-14 0 0)
(-5.01887e-14 0 0)
(-1.67518e-13 0 0)
(-1.51279e-13 0 0)
(4.24563e-14 0 0)
(1.09626e-13 0 0)
(5.09351e-15 0 0)
(-1.28462e-13 0 0)
(-7.66632e-14 0 0)
(-8.50841e-14 0 0)
(-1.67852e-13 0 0)
)
;

boundaryField
{
    sides
    {
        type            zeroGradient;
    }
    empty
    {
        type            empty;
    }
}


// ************************************************************************* //
