/*--------------------------------*- C++ -*----------------------------------*\
| =========                 |                                                 |
| \\      /  F ield         | OpenFOAM: The Open Source CFD Toolbox           |
|  \\    /   O peration     | Version:  2212                                  |
|   \\  /    A nd           | Website:  www.openfoam.com                      |
|    \\/     M anipulation  |                                                 |
\*---------------------------------------------------------------------------*/
FoamFile
{
    version     2.0;
    format      ascii;
    arch        "LSB;label=32;scalar=64";
    class       volVectorField;
    location    "0.002";
    object      U;
}
// * * * * * * * * * * * * * * * * * * * * * * * * * * * * * * * * * * * * * //

dimensions      [0 1 -1 0 0 0 0];

internalField   nonuniform List<vector> 
100
(
(3.88359e-13 0 0)
(3.29287e-13 0 0)
(1.01366e-13 0 0)
(5.32925e-14 0 0)
(1.09505e-13 0 0)
(1.17027e-13 0 0)
(1.00685e-13 0 0)
(2.11988e-13 0 0)
(7.35972e-14 0 0)
(-5.99854e-14 0 0)
(-2.44025e-15 0 0)
(-8.8602e-14 0 0)
(-2.02093e-13 0 0)
(-3.77875e-14 0 0)
(7.23106e-14 0 0)
(-4.68362e-14 0 0)
(2.099e-14 0 0)
(1.14603e-13 0 0)
(-2.17095e-14 0 0)
(3.71693e-14 0 0)
(1.66405e-13 0 0)
(5.39344e-13 0 0)
(6.51953e-12 0 0)
(7.62878e-11 0 0)
(8.23291e-10 0 0)
(7.95387e-09 0 0)
(6.87867e-08 0 0)
(5.33424e-07 0 0)
(3.7141e-06 0 0)
(2.3242e-05 0 0)
(0.000130801 0 0)
(0.000662206 0 0)
(0.00301572 0 0)
(0.0123486 0 0)
(0.0454286 0 0)
(0.149991 0 0)
(0.443959 0 0)
(1.17718 0 0)
(2.79721 0 0)
(5.97057 0 0)
(11.5053 0 0)
(20.1737 0 0)
(32.5141 0 0)
(48.7172 0 0)
(68.6348 0 0)
(91.8691 0 0)
(117.856 0 0)
(145.903 0 0)
(175.147 0 0)
(204.351 0 0)
(231.638 0 0)
(254.408 0 0)
(270.217 0 0)
(278.792 0 0)
(282.382 0 0)
(283.599 0 0)
(283.492 0 0)
(281.197 0 0)
(272.47 0 0)
(248.92 0 0)
(202.339 0 0)
(134.907 0 0)
(67.1121 0 0)
(24.0026 0 0)
(6.71083 0 0)
(1.63374 0 0)
(0.364133 0 0)
(0.0751394 0 0)
(0.014337 0 0)
(0.00251961 0 0)
(0.000406207 0 0)
(5.98542e-05 0 0)
(8.03323e-06 0 0)
(9.78838e-07 0 0)
(1.07934e-07 0 0)
(1.07357e-08 0 0)
(9.60202e-10 0 0)
(7.71061e-11 0 0)
(5.61305e-12 0 0)
(3.07564e-13 0 0)
(2.29443e-14 0 0)
(-2.25085e-14 0 0)
(1.03868e-15 0 0)
(-2.2692e-14 0 0)
(-7.67023e-14 0 0)
(-1.17118e-13 0 0)
(-2.07687e-13 0 0)
(-2.37835e-13 0 0)
(-1.85733e-13 0 0)
(-6.1617e-14 0 0)
(2.35076e-14 0 0)
(-1.95152e-14 0 0)
(-1.3049e-13 0 0)
(-5.15245e-14 0 0)
(1.60941e-13 0 0)
(3.02955e-13 0 0)
(1.33425e-13 0 0)
(5.85696e-14 0 0)
(7.4217e-14 0 0)
(-8.32997e-14 0 0)
)
;

boundaryField
{
    sides
    {
        type            zeroGradient;
    }
    empty
    {
        type            empty;
    }
}


// ************************************************************************* //
