/*--------------------------------*- C++ -*----------------------------------*\
| =========                 |                                                 |
| \\      /  F ield         | OpenFOAM: The Open Source CFD Toolbox           |
|  \\    /   O peration     | Version:  2312                                  |
|   \\  /    A nd           | Website:  www.openfoam.com                      |
|    \\/     M anipulation  |                                                 |
\*---------------------------------------------------------------------------*/
FoamFile
{
    version     2.0;
    format      ascii;
    arch        "LSB;label=32;scalar=64";
    class       volVectorField;
    location    "0.002";
    object      U;
}
// * * * * * * * * * * * * * * * * * * * * * * * * * * * * * * * * * * * * * //

dimensions      [0 1 -1 0 0 0 0];

internalField   nonuniform List<vector> 
100
(
(-1.91205e-14 0 0)
(-8.81787e-14 0 0)
(2.44212e-15 0 0)
(7.67685e-15 0 0)
(-2.13992e-13 0 0)
(-1.4087e-13 0 0)
(-1.15909e-13 0 0)
(8.53013e-14 0 0)
(1.90668e-13 0 0)
(2.07693e-13 0 0)
(4.05092e-13 0 0)
(3.32393e-13 0 0)
(2.78498e-13 0 0)
(-5.06895e-14 0 0)
(-2.52171e-13 0 0)
(1.97254e-14 0 0)
(1.96999e-13 0 0)
(-4.98476e-14 0 0)
(-1.01685e-13 0 0)
(4.47386e-14 0 0)
(7.49725e-13 0 0)
(1.06716e-11 0 0)
(1.16867e-10 0 0)
(1.15853e-09 0 0)
(1.03368e-08 0 0)
(8.31335e-08 0 0)
(6.03553e-07 0 0)
(3.95997e-06 0 0)
(2.34999e-05 0 0)
(0.000126203 0 0)
(0.000613473 0 0)
(0.00269902 0 0)
(0.0107428 0 0)
(0.0386563 0 0)
(0.125627 0 0)
(0.368333 0 0)
(0.973506 0 0)
(2.31943 0 0)
(4.98955 0 0)
(9.72863 0 0)
(17.3039 0 0)
(28.3215 0 0)
(43.0917 0 0)
(61.5958 0 0)
(83.5562 0 0)
(108.538 0 0)
(136.01 0 0)
(165.361 0 0)
(195.844 0 0)
(226.45 0 0)
(255.637 0 0)
(281.11 0 0)
(300.29 0 0)
(311.928 0 0)
(317.378 0 0)
(319.428 0 0)
(319.985 0 0)
(319.305 0 0)
(314.754 0 0)
(298.576 0 0)
(259.356 0 0)
(191.269 0 0)
(107.481 0 0)
(41.5743 0 0)
(11.4748 0 0)
(2.62543 0 0)
(0.547596 0 0)
(0.106854 0 0)
(0.0195262 0 0)
(0.00332685 0 0)
(0.000525974 0 0)
(7.68398e-05 0 0)
(1.03352e-05 0 0)
(1.27572e-06 0 0)
(1.44073e-07 0 0)
(1.4843e-08 0 0)
(1.39093e-09 0 0)
(1.18259e-10 0 0)
(9.08581e-12 0 0)
(6.58361e-13 0 0)
(3.79553e-14 0 0)
(-4.44248e-14 0 0)
(-3.48913e-14 0 0)
(-6.09101e-14 0 0)
(-2.23699e-14 0 0)
(1.87798e-14 0 0)
(5.14528e-14 0 0)
(-2.51709e-14 0 0)
(-1.03175e-13 0 0)
(-1.0741e-13 0 0)
(-8.48101e-15 0 0)
(-3.2963e-14 0 0)
(-7.32242e-14 0 0)
(-2.50323e-14 0 0)
(-2.68294e-14 0 0)
(3.78376e-15 0 0)
(4.33914e-14 0 0)
(4.38577e-14 0 0)
(-2.35903e-15 0 0)
(1.24936e-16 0 0)
)
;

boundaryField
{
    sides
    {
        type            zeroGradient;
    }
    empty
    {
        type            empty;
    }
}


// ************************************************************************* //
