/*--------------------------------*- C++ -*----------------------------------*\
| =========                 |                                                 |
| \\      /  F ield         | OpenFOAM: The Open Source CFD Toolbox           |
|  \\    /   O peration     | Version:  2312                                  |
|   \\  /    A nd           | Website:  www.openfoam.com                      |
|    \\/     M anipulation  |                                                 |
\*---------------------------------------------------------------------------*/
FoamFile
{
    version     2.0;
    format      ascii;
    arch        "LSB;label=32;scalar=64";
    class       volScalarField;
    location    "0.00016";
    object      p;
}
// * * * * * * * * * * * * * * * * * * * * * * * * * * * * * * * * * * * * * //

dimensions      [1 -1 -2 0 0 0 0];

internalField   nonuniform List<scalar> 
500
(
223452
223496
223523
223542
223556
223567
223576
223585
223592
223599
223605
223610
223615
223620
223625
223630
223634
223638
223642
223646
223650
223654
223658
223661
223665
223669
223672
223676
223679
223683
223687
223690
223694
223697
223701
223705
223709
223712
223716
223720
223724
223728
223732
223736
223740
223744
223748
223753
223757
223761
223766
223770
223775
223780
223785
223790
223795
223800
223805
223811
223816
223822
223827
223833
223839
223845
223851
223858
223864
223871
223878
223885
223892
223899
223906
223914
223922
223930
223938
223946
223955
223964
223973
223982
223991
224001
224011
224021
224032
224043
224054
224065
224077
224089
224101
224113
224126
224140
224153
224167
224182
224197
224212
224228
224244
224260
224277
224295
224313
224332
224351
224370
224391
224412
224433
224455
224478
224502
224526
224551
224577
224603
224630
224659
224688
224718
224749
224781
224814
224847
224883
224919
224956
224995
225035
225076
225118
225162
225208
225254
225303
225353
225405
225458
225513
225571
225630
225691
225754
225820
225887
225957
226030
226105
226182
226263
226346
226432
226521
226614
226709
226808
226911
227017
227127
227241
227359
227482
227609
227740
227876
228017
228164
228316
228473
228636
228805
228980
229162
229350
229546
229749
229959
230177
230403
230637
230880
231133
231394
231665
231947
232239
232542
232856
233182
233520
233871
234235
234612
235004
235410
235831
236268
236722
237192
237680
238186
238711
239256
239821
240407
241015
241645
242299
242978
243681
244411
245167
245952
246766
247610
248485
249393
250334
251309
252321
253370
254458
255585
256755
257967
259223
260526
261876
263275
264726
266229
267788
269403
271077
272812
274609
276472
278403
280403
282475
284623
286848
289152
291540
294014
296576
299230
301979
304826
307774
310828
313990
317264
320654
324164
327797
331558
335452
339481
343651
347967
352432
357052
361831
366775
371888
377176
382643
388296
394140
400180
406421
412871
419533
426415
433521
440857
448430
456243
464302
472611
481173
489985
499040
508337
517861
527583
537453
547385
557237
566771
575597
583070
588142
589122
583347
566819
534053
478961
398642
300265
205687
140648
111344
102586
100544
100110
100021
100002
99998.5
99997.8
99997.6
99997.6
99997.6
99997.6
99997.6
99997.6
99997.6
99997.6
99997.6
99997.6
99997.6
99997.6
99997.6
99997.6
99997.6
99997.6
99997.6
99997.6
99997.6
99997.6
99997.6
99997.6
99997.6
99997.6
99997.6
99997.6
99997.6
99997.6
99997.6
99997.6
99997.6
99997.6
99997.6
99997.6
99997.6
99997.6
99997.6
99997.6
99997.6
99997.6
99997.6
99997.6
99997.6
99997.6
99997.6
99997.6
99997.6
99997.6
99997.6
99997.6
99997.6
99997.6
99997.6
99997.6
99997.6
99997.6
99997.6
99997.6
99997.6
99997.6
99997.6
99997.6
99997.6
99997.6
99997.6
99997.6
99997.6
99997.6
99997.6
99997.6
99997.6
99997.6
99997.6
99997.6
99997.6
99997.6
99997.6
99997.6
99997.6
99997.6
99997.6
99997.6
99997.6
99997.6
99997.6
99997.6
99997.6
99997.6
99997.6
99997.6
99997.6
99997.6
99997.6
99997.6
99997.6
99997.6
99997.6
99997.6
99997.6
99997.6
99997.6
99997.6
99997.6
99997.6
99997.6
99997.6
99997.6
99997.6
99997.6
99997.6
99997.6
99997.6
99997.6
99997.6
99997.6
99997.6
99997.6
99997.6
99997.6
99997.6
99997.6
99997.6
99997.6
99997.6
99997.6
99997.6
99997.6
99997.6
99997.6
99997.6
99997.6
99997.6
99997.6
99997.6
99997.6
99997.6
99997.6
99997.6
99997.6
99997.6
99997.6
99997.6
99997.6
99997.6
99997.6
99997.6
99997.6
99997.6
99997.6
99997.6
99997.6
99997.6
99997.6
99997.6
99997.6
99997.6
99997.6
99997.6
99997.6
99997.6
99997.6
99997.6
99997.6
99997.6
99997.6
99997.6
99997.6
99997.6
99997.6
99997.6
99997.6
99997.6
99997.6
99997.6
99997.6
99997.6
99997.6
99997.6
99997.6
99997.6
99997.6
99997.6
99997.6
)
;

boundaryField
{
    wedge0
    {
        type            wedge;
    }
    wedge1
    {
        type            wedge;
    }
    wedge2
    {
        type            wedge;
    }
    wedge3
    {
        type            wedge;
    }
    outlet
    {
        type            zeroGradient;
    }
    defaultFaces
    {
        type            empty;
    }
}


// ************************************************************************* //
