/*--------------------------------*- C++ -*----------------------------------*\
| =========                 |                                                 |
| \\      /  F ield         | OpenFOAM: The Open Source CFD Toolbox           |
|  \\    /   O peration     | Version:  2312                                  |
|   \\  /    A nd           | Website:  www.openfoam.com                      |
|    \\/     M anipulation  |                                                 |
\*---------------------------------------------------------------------------*/
FoamFile
{
    version     2.0;
    format      ascii;
    arch        "LSB;label=32;scalar=64";
    class       volScalarField;
    location    "0.00016";
    object      rho;
}
// * * * * * * * * * * * * * * * * * * * * * * * * * * * * * * * * * * * * * //

dimensions      [1 -3 0 0 0 0 0];

internalField   nonuniform List<scalar> 
500
(
0.00464557
0.00464722
0.00464963
0.00465291
0.00465713
0.00466231
0.00466848
0.00467565
0.00468381
0.00469299
0.00470319
0.00471442
0.00472669
0.00474
0.00475436
0.00476978
0.00478628
0.00480386
0.00482253
0.00484231
0.00486321
0.00488524
0.00490842
0.00493276
0.00495827
0.00498497
0.00501288
0.00504202
0.00507241
0.00510406
0.00513699
0.00517123
0.0052068
0.00524372
0.00528201
0.00532171
0.00536283
0.0054054
0.00544946
0.00549503
0.00554213
0.00559082
0.0056411
0.00569303
0.00574663
0.00580194
0.00585901
0.00591786
0.00597854
0.00604109
0.00610556
0.00617199
0.00624043
0.00631092
0.00638352
0.00645828
0.00653525
0.00661449
0.00669606
0.00678001
0.00686642
0.00695533
0.00704683
0.00714097
0.00723783
0.00733748
0.00744001
0.00754548
0.00765398
0.0077656
0.00788041
0.00799852
0.00812001
0.00824499
0.00837355
0.00850579
0.00864183
0.00878178
0.00892575
0.00907385
0.00922622
0.00938298
0.00954426
0.0097102
0.00988094
0.0100566
0.0102374
0.0104235
0.0106149
0.010812
0.0110148
0.0112235
0.0114384
0.0116596
0.0118874
0.0121218
0.0123633
0.0126118
0.0128678
0.0131314
0.013403
0.0136826
0.0139707
0.0142674
0.0145731
0.0148881
0.0152126
0.0155471
0.0158917
0.0162469
0.016613
0.0169904
0.0173794
0.0177805
0.0181939
0.0186203
0.01906
0.0195134
0.019981
0.0204633
0.0209608
0.0214741
0.0220036
0.0225499
0.0231135
0.0236952
0.0242955
0.024915
0.0255544
0.0262143
0.0268956
0.0275989
0.028325
0.0290747
0.0298487
0.030648
0.0314734
0.0323258
0.0332062
0.0341155
0.0350546
0.0360247
0.0370268
0.0380621
0.0391316
0.0402365
0.0413781
0.0425576
0.0437763
0.0450356
0.0463368
0.0476814
0.049071
0.0505069
0.0519908
0.0535243
0.0551092
0.056747
0.0584397
0.0601891
0.0619971
0.0638656
0.0657967
0.0677924
0.0698549
0.0719864
0.0741892
0.0764656
0.0788181
0.0812491
0.0837611
0.0863568
0.089039
0.0918103
0.0946736
0.0976318
0.100688
0.103845
0.107107
0.110476
0.113955
0.117549
0.121261
0.125094
0.129052
0.133139
0.137359
0.141715
0.146212
0.150854
0.155645
0.160589
0.165692
0.170957
0.176389
0.181994
0.187775
0.193738
0.199888
0.20623
0.21277
0.219512
0.226463
0.233628
0.241014
0.248625
0.256468
0.264548
0.272874
0.28145
0.290283
0.29938
0.308748
0.318393
0.328324
0.338546
0.349067
0.359896
0.371039
0.382504
0.3943
0.406434
0.418915
0.431751
0.444951
0.458523
0.472477
0.486822
0.501567
0.516722
0.532295
0.548299
0.564741
0.581633
0.598985
0.616809
0.635114
0.653912
0.673215
0.693034
0.713381
0.734268
0.755708
0.777712
0.800295
0.823468
0.847246
0.871641
0.896669
0.922342
0.948675
0.975683
1.00338
1.03178
1.0609
1.09076
1.12137
1.15274
1.1849
1.21786
1.25163
1.28623
1.32169
1.35801
1.39521
1.4333
1.47232
1.51227
1.55316
1.59503
1.63787
1.68172
1.72658
1.77247
1.8194
1.8674
1.91647
1.96663
2.0179
2.07028
2.1238
2.17845
2.23426
2.29122
2.34935
2.40865
2.46912
2.53076
2.59351
2.65726
2.72204
2.78779
2.85439
2.92163
2.98912
3.05627
3.12209
3.18495
3.24219
3.28947
3.31976
3.32195
3.27917
3.16769
2.95893
2.63334
2.20823
1.76429
1.42157
1.24281
1.18121
1.16543
1.16193
1.16119
1.16104
1.16101
1.161
1.161
1.161
1.161
1.161
1.161
1.161
1.161
1.161
1.161
1.161
1.161
1.161
1.161
1.161
1.161
1.161
1.161
1.161
1.161
1.161
1.161
1.161
1.161
1.161
1.161
1.161
1.161
1.161
1.161
1.161
1.161
1.161
1.161
1.161
1.161
1.161
1.161
1.161
1.161
1.161
1.161
1.161
1.161
1.161
1.161
1.161
1.161
1.161
1.161
1.161
1.161
1.161
1.161
1.161
1.161
1.161
1.161
1.161
1.161
1.161
1.161
1.161
1.161
1.161
1.161
1.161
1.161
1.161
1.161
1.161
1.161
1.161
1.161
1.161
1.161
1.161
1.161
1.161
1.161
1.161
1.161
1.161
1.161
1.161
1.161
1.161
1.161
1.161
1.161
1.161
1.161
1.161
1.161
1.161
1.161
1.161
1.161
1.161
1.161
1.161
1.161
1.161
1.161
1.161
1.161
1.161
1.161
1.161
1.161
1.161
1.161
1.161
1.161
1.161
1.161
1.161
1.161
1.161
1.161
1.161
1.161
1.161
1.161
1.161
1.161
1.161
1.161
1.161
1.161
1.161
1.161
1.161
1.161
1.161
1.161
1.161
1.161
1.161
1.161
1.161
1.161
1.161
1.161
1.161
1.161
1.161
1.161
1.161
1.161
1.161
1.161
1.161
1.161
1.161
1.161
1.161
1.161
1.161
1.161
1.161
1.161
1.161
1.161
1.161
1.161
1.161
1.161
1.161
1.161
1.161
1.161
1.161
1.161
1.161
1.161
1.161
1.161
1.161
1.161
1.161
1.161
1.161
1.161
)
;

boundaryField
{
    wedge0
    {
        type            wedge;
    }
    wedge1
    {
        type            wedge;
    }
    wedge2
    {
        type            wedge;
    }
    wedge3
    {
        type            wedge;
    }
    outlet
    {
        type            zeroGradient;
    }
    defaultFaces
    {
        type            empty;
    }
}


// ************************************************************************* //
