/*--------------------------------*- C++ -*----------------------------------*\
| =========                 |                                                 |
| \\      /  F ield         | OpenFOAM: The Open Source CFD Toolbox           |
|  \\    /   O peration     | Version:  2312                                  |
|   \\  /    A nd           | Website:  www.openfoam.com                      |
|    \\/     M anipulation  |                                                 |
\*---------------------------------------------------------------------------*/
FoamFile
{
    version     2.0;
    format      ascii;
    arch        "LSB;label=32;scalar=64";
    class       volScalarField;
    location    "0.00016";
    object      T;
}
// * * * * * * * * * * * * * * * * * * * * * * * * * * * * * * * * * * * * * //

dimensions      [0 0 0 1 0 0 0];

internalField   nonuniform List<scalar> 
500
(
167537
167510
167444
167339
167198
167021
166807
166558
166273
165952
165597
165206
164782
164323
163830
163303
162743
162151
161526
160869
160180
159461
158711
157930
157120
156281
155413
154518
153595
152645
151668
150667
149640
148589
147514
146416
145296
144154
142991
141807
140604
139383
138143
136885
135611
134320
133015
131694
130360
129013
127653
126282
124900
123507
122105
120694
119276
117849
116417
114978
113534
112085
110633
109177
107719
106259
104797
103335
101873
100412
98952.3
97494.1
96038.4
94585.8
93136.7
91691.7
90251.5
88816.4
87387.1
85963.9
84547.5
83138.3
81736.7
80343.2
78958.2
77582.2
76215.5
74858.6
73511.7
72175.4
70850
69535.7
68232.9
66941.9
65663.1
64396.6
63142.8
61901.9
60674.2
59459.9
58259.1
57072.2
55899.2
54740.4
53595.9
52465.9
51350.5
50249.9
49164.1
48093.2
47037.4
45996.7
44971.2
43960.9
42965.9
41986.2
41021.9
40072.9
39139.3
38221
37318.1
36430.5
35558.2
34701.1
33859.2
33032.5
32220.8
31424.1
30642.3
29875.4
29123.1
28385.6
27662.5
26953.9
26259.5
25579.4
24913.3
24261
23622.6
22997.8
22386.5
21788.5
21203.6
20631.8
20072.9
19526.6
18992.9
18471.5
17962.3
17465.1
16979.7
16506
16043.7
15592.8
15152.9
14724
14305.8
13898.2
13501
13113.9
12736.8
12369.6
12012
11663.8
11324.9
10995.1
10674.2
10362
10058.3
9763.04
9475.9
9196.77
8925.46
8661.8
8405.62
8156.75
7915.01
7680.25
7452.29
7230.98
7016.15
6807.64
6605.3
6408.98
6218.51
6033.76
5854.57
5680.8
5512.31
5348.96
5190.61
5037.12
4888.37
4744.22
4604.55
4469.22
4338.13
4211.15
4088.16
3969.05
3853.71
3742.02
3633.89
3529.2
3427.86
3329.76
3234.81
3142.91
3053.97
2967.91
2884.63
2804.05
2726.08
2650.65
2577.67
2507.08
2438.79
2372.74
2308.85
2247.05
2187.28
2129.48
2073.58
2019.53
1967.26
1916.71
1867.84
1820.58
1774.89
1730.72
1688.01
1646.72
1606.81
1568.23
1530.94
1494.89
1460.05
1426.38
1393.84
1362.39
1332
1302.64
1274.27
1246.86
1220.38
1194.81
1170.1
1146.24
1123.2
1100.96
1079.48
1058.74
1038.73
1019.42
1000.78
982.804
965.463
948.739
932.616
917.073
902.095
887.665
873.767
860.384
847.503
835.11
823.189
811.728
800.715
790.136
779.98
770.235
760.89
751.935
743.359
735.153
727.306
719.809
712.654
705.83
699.331
693.148
687.273
681.697
676.413
671.414
666.692
662.238
658.049
654.131
650.461
647.019
643.785
640.737
637.843
635.056
632.305
629.477
626.392
622.761
618.106
611.642
602.067
587.226
563.807
527.279
473.612
406.072
344.612
312.051
302.501
300.493
300.099
300.02
300.004
300.001
300
300
300
300
300
300
300
300
300
300
300
300
300
300
300
300
300
300
300
300
300
300
300
300
300
300
300
300
300
300
300
300
300
300
300
300
300
300
300
300
300
300
300
300
300
300
300
300
300
300
300
300
300
300
300
300
300
300
300
300
300
300
300
300
300
300
300
300
300
300
300
300
300
300
300
300
300
300
300
300
300
300
300
300
300
300
300
300
300
300
300
300
300
300
300
300
300
300
300
300
300
300
300
300
300
300
300
300
300
300
300
300
300
300
300
300
300
300
300
300
300
300
300
300
300
300
300
300
300
300
300
300
300
300
300
300
300
300
300
300
300
300
300
300
300
300
300
300
300
300
300
300
300
300
300
300
300
300
300
300
300
300
300
300
300
300
300
300
300
300
300
300
300
300
300
300
300
300
300
300
300
300
300
300
)
;

boundaryField
{
    wedge0
    {
        type            wedge;
    }
    wedge1
    {
        type            wedge;
    }
    wedge2
    {
        type            wedge;
    }
    wedge3
    {
        type            wedge;
    }
    outlet
    {
        type            zeroGradient;
    }
    defaultFaces
    {
        type            empty;
    }
}


// ************************************************************************* //
