/*--------------------------------*- C++ -*----------------------------------*\
| =========                 |                                                 |
| \\      /  F ield         | OpenFOAM: The Open Source CFD Toolbox           |
|  \\    /   O peration     | Version:  2312                                  |
|   \\  /    A nd           | Website:  www.openfoam.com                      |
|    \\/     M anipulation  |                                                 |
\*---------------------------------------------------------------------------*/
FoamFile
{
    version     2.0;
    format      ascii;
    arch        "LSB;label=32;scalar=64";
    class       volScalarField;
    location    "0.00016";
    object      thermo:e;
}
// * * * * * * * * * * * * * * * * * * * * * * * * * * * * * * * * * * * * * //

dimensions      [0 2 -2 0 0 0 0];

internalField   nonuniform List<scalar> 
500
(
1.20241e+08
1.20222e+08
1.20174e+08
1.20099e+08
1.19998e+08
1.19871e+08
1.19717e+08
1.19538e+08
1.19334e+08
1.19104e+08
1.18849e+08
1.18569e+08
1.18264e+08
1.17934e+08
1.17581e+08
1.17203e+08
1.16801e+08
1.16376e+08
1.15927e+08
1.15456e+08
1.14962e+08
1.14445e+08
1.13907e+08
1.13346e+08
1.12765e+08
1.12163e+08
1.1154e+08
1.10897e+08
1.10235e+08
1.09553e+08
1.08852e+08
1.08133e+08
1.07397e+08
1.06642e+08
1.05871e+08
1.05083e+08
1.04279e+08
1.03459e+08
1.02624e+08
1.01775e+08
1.00912e+08
1.00035e+08
9.91449e+07
9.82424e+07
9.73278e+07
9.64017e+07
9.54646e+07
9.45171e+07
9.35596e+07
9.25927e+07
9.16168e+07
9.06326e+07
8.96406e+07
8.86412e+07
8.76349e+07
8.66224e+07
8.56041e+07
8.45805e+07
8.35522e+07
8.25196e+07
8.14832e+07
8.04435e+07
7.94011e+07
7.83563e+07
7.73098e+07
7.62619e+07
7.52131e+07
7.41638e+07
7.31146e+07
7.20659e+07
7.1018e+07
6.99715e+07
6.89268e+07
6.78842e+07
6.68442e+07
6.58072e+07
6.47735e+07
6.37435e+07
6.27177e+07
6.16963e+07
6.06797e+07
5.96683e+07
5.86624e+07
5.76623e+07
5.66683e+07
5.56807e+07
5.46998e+07
5.3726e+07
5.27594e+07
5.18003e+07
5.0849e+07
4.99058e+07
4.89708e+07
4.80442e+07
4.71264e+07
4.62175e+07
4.53176e+07
4.4427e+07
4.35459e+07
4.26743e+07
4.18126e+07
4.09607e+07
4.01189e+07
3.92872e+07
3.84658e+07
3.76548e+07
3.68543e+07
3.60643e+07
3.52851e+07
3.45165e+07
3.37587e+07
3.30118e+07
3.22758e+07
3.15507e+07
3.08366e+07
3.01335e+07
2.94414e+07
2.87603e+07
2.80903e+07
2.74312e+07
2.67832e+07
2.61462e+07
2.55201e+07
2.4905e+07
2.43008e+07
2.37074e+07
2.31248e+07
2.25531e+07
2.1992e+07
2.14415e+07
2.09017e+07
2.03723e+07
1.98534e+07
1.93448e+07
1.88465e+07
1.83583e+07
1.78802e+07
1.74122e+07
1.69539e+07
1.65055e+07
1.60668e+07
1.56376e+07
1.52178e+07
1.48075e+07
1.44063e+07
1.40142e+07
1.36312e+07
1.3257e+07
1.28915e+07
1.25347e+07
1.21863e+07
1.18463e+07
1.15146e+07
1.11909e+07
1.08753e+07
1.05674e+07
1.02673e+07
9.97474e+06
9.68964e+06
9.41185e+06
9.14123e+06
8.87767e+06
8.62101e+06
8.37114e+06
8.12791e+06
7.89121e+06
7.66088e+06
7.43682e+06
7.21888e+06
7.00693e+06
6.80086e+06
6.60052e+06
6.4058e+06
6.21658e+06
6.03271e+06
5.8541e+06
5.6806e+06
5.51211e+06
5.34851e+06
5.18967e+06
5.03549e+06
4.88584e+06
4.74063e+06
4.59972e+06
4.46303e+06
4.33043e+06
4.20183e+06
4.07711e+06
3.95619e+06
3.83895e+06
3.7253e+06
3.61514e+06
3.50838e+06
3.40493e+06
3.30468e+06
3.20756e+06
3.11348e+06
3.02234e+06
2.93407e+06
2.84859e+06
2.76581e+06
2.68565e+06
2.60804e+06
2.53291e+06
2.46017e+06
2.38977e+06
2.32162e+06
2.25567e+06
2.19184e+06
2.13007e+06
2.0703e+06
2.01246e+06
1.95651e+06
1.90237e+06
1.85e+06
1.79933e+06
1.75032e+06
1.70291e+06
1.65706e+06
1.61271e+06
1.56981e+06
1.52833e+06
1.48821e+06
1.44942e+06
1.4119e+06
1.37562e+06
1.34055e+06
1.30663e+06
1.27384e+06
1.24213e+06
1.21148e+06
1.18185e+06
1.15321e+06
1.12552e+06
1.09875e+06
1.07288e+06
1.04788e+06
1.02371e+06
1.00036e+06
977788
955979
934905
914544
894873
875870
857513
839783
822659
806124
790157
774742
759861
745498
731636
718262
705358
692913
680910
669338
658184
647434
637077
627102
617498
608253
599358
590803
582577
574673
567080
559791
552797
546091
539664
533509
527619
521987
516607
511471
506575
501910
497472
493256
489254
485462
481874
478485
475288
472282
469470
466836
464365
462045
459857
457780
455780
453805
451776
449562
446955
443615
438976
432104
421452
404644
378428
339912
291438
247328
223959
217105
215664
215381
215324
215313
215311
215310
215310
215310
215310
215310
215310
215310
215310
215310
215310
215310
215310
215310
215310
215310
215310
215310
215310
215310
215310
215310
215310
215310
215310
215310
215310
215310
215310
215310
215310
215310
215310
215310
215310
215310
215310
215310
215310
215310
215310
215310
215310
215310
215310
215310
215310
215310
215310
215310
215310
215310
215310
215310
215310
215310
215310
215310
215310
215310
215310
215310
215310
215310
215310
215310
215310
215310
215310
215310
215310
215310
215310
215310
215310
215310
215310
215310
215310
215310
215310
215310
215310
215310
215310
215310
215310
215310
215310
215310
215310
215310
215310
215310
215310
215310
215310
215310
215310
215310
215310
215310
215310
215310
215310
215310
215310
215310
215310
215310
215310
215310
215310
215310
215310
215310
215310
215310
215310
215310
215310
215310
215310
215310
215310
215310
215310
215310
215310
215310
215310
215310
215310
215310
215310
215310
215310
215310
215310
215310
215310
215310
215310
215310
215310
215310
215310
215310
215310
215310
215310
215310
215310
215310
215310
215310
215310
215310
215310
215310
215310
215310
215310
215310
215310
215310
215310
215310
215310
215310
215310
215310
215310
215310
215310
215310
215310
215310
215310
215310
215310
215310
215310
215310
215310
)
;

boundaryField
{
    wedge0
    {
        type            wedge;
    }
    wedge1
    {
        type            wedge;
    }
    wedge2
    {
        type            wedge;
    }
    wedge3
    {
        type            wedge;
    }
    outlet
    {
        type            zeroGradient;
    }
    defaultFaces
    {
        type            empty;
    }
}


// ************************************************************************* //
