/*--------------------------------*- C++ -*----------------------------------*\
| =========                 |                                                 |
| \\      /  F ield         | OpenFOAM: The Open Source CFD Toolbox           |
|  \\    /   O peration     | Version:  2312                                  |
|   \\  /    A nd           | Website:  www.openfoam.com                      |
|    \\/     M anipulation  |                                                 |
\*---------------------------------------------------------------------------*/
FoamFile
{
    version     2.0;
    format      ascii;
    arch        "LSB;label=32;scalar=64";
    class       volVectorField;
    location    "0.00016";
    object      U;
}
// * * * * * * * * * * * * * * * * * * * * * * * * * * * * * * * * * * * * * //

dimensions      [0 1 -1 0 0 0 0];

internalField   nonuniform List<vector> 
500
(
(1.43961 -3.4728e-10 3.47762e-10)
(2.59194 -3.38206e-10 3.38719e-10)
(3.87724 -3.45433e-10 3.46145e-10)
(5.24241 -3.40363e-10 3.41224e-10)
(6.63944 -3.24104e-10 3.24598e-10)
(8.05188 -3.19905e-10 3.20117e-10)
(9.47288 -3.12984e-10 3.12975e-10)
(10.8991 -3.05491e-10 3.05337e-10)
(12.3288 -2.92838e-10 2.92591e-10)
(13.7608 -2.7874e-10 2.78618e-10)
(15.1946 -2.64457e-10 2.64473e-10)
(16.6296 -2.50885e-10 2.50877e-10)
(18.0656 -2.38044e-10 2.38043e-10)
(19.5024 -2.24194e-10 2.24198e-10)
(20.9398 -2.10808e-10 2.10818e-10)
(22.3776 -1.98014e-10 1.97995e-10)
(23.816 -1.87123e-10 1.87122e-10)
(25.2546 -1.7962e-10 1.79624e-10)
(26.6936 -1.72661e-10 1.72649e-10)
(28.1328 -1.68109e-10 1.68116e-10)
(29.5723 -1.64381e-10 1.64393e-10)
(31.0119 -1.62389e-10 1.62391e-10)
(32.4517 -1.60957e-10 1.60964e-10)
(33.8917 -1.59137e-10 1.59139e-10)
(35.3319 -1.56501e-10 1.56503e-10)
(36.7721 -1.53196e-10 1.53192e-10)
(38.2125 -1.50915e-10 1.50912e-10)
(39.653 -1.48142e-10 1.48134e-10)
(41.0936 -1.4344e-10 1.4344e-10)
(42.5343 -1.38529e-10 1.38533e-10)
(43.975 -1.33362e-10 1.33364e-10)
(45.4159 -1.28369e-10 1.28371e-10)
(46.8568 -1.22084e-10 1.22085e-10)
(48.2979 -1.16469e-10 1.16471e-10)
(49.739 -1.10653e-10 1.10653e-10)
(51.1801 -1.05706e-10 1.05706e-10)
(52.6214 -1.01643e-10 1.01643e-10)
(54.0627 -9.70493e-11 9.70494e-11)
(55.5041 -9.3109e-11 9.3109e-11)
(56.9455 -8.87041e-11 8.87041e-11)
(58.387 -8.38655e-11 8.38655e-11)
(59.8286 -7.86529e-11 7.86529e-11)
(61.2703 -7.30956e-11 7.30956e-11)
(62.712 -6.8347e-11 6.8347e-11)
(64.1537 -6.32796e-11 6.32796e-11)
(65.5956 -5.84069e-11 5.84069e-11)
(67.0375 -5.30601e-11 5.30601e-11)
(68.4794 -4.74758e-11 4.74758e-11)
(69.9215 -4.16612e-11 4.16612e-11)
(71.3636 -3.6538e-11 3.6538e-11)
(72.8057 -3.19819e-11 3.19819e-11)
(74.2479 -2.7341e-11 2.7341e-11)
(75.6902 -2.24951e-11 2.24951e-11)
(77.1326 -1.81954e-11 1.81954e-11)
(78.575 -1.387e-11 1.387e-11)
(80.0175 -1.00184e-11 1.00184e-11)
(81.4601 -6.61817e-12 6.61817e-12)
(82.9027 -3.6289e-12 3.6289e-12)
(84.3454 -1.02301e-12 1.02301e-12)
(85.7882 1.21472e-12 -1.21472e-12)
(87.2311 2.57003e-12 -2.57003e-12)
(88.674 3.64139e-12 -3.64139e-12)
(90.1171 4.71797e-12 -4.71797e-12)
(91.5602 5.531e-12 -5.531e-12)
(93.0033 6.09305e-12 -6.09305e-12)
(94.4466 6.19731e-12 -6.19731e-12)
(95.89 6.13944e-12 -6.13944e-12)
(97.3334 6.15834e-12 -6.15834e-12)
(98.7769 5.77451e-12 -5.77451e-12)
(100.221 5.57845e-12 -5.57845e-12)
(101.664 5.39414e-12 -5.39414e-12)
(103.108 5.00819e-12 -5.00819e-12)
(104.552 4.73921e-12 -4.73921e-12)
(105.996 4.81895e-12 -4.81895e-12)
(107.44 4.89132e-12 -4.89138e-12)
(108.884 4.93201e-12 -4.9298e-12)
(110.329 4.67394e-12 -4.67233e-12)
(111.773 4.26734e-12 -4.2673e-12)
(113.218 4.06142e-12 -4.0617e-12)
(114.662 3.85911e-12 -3.85654e-12)
(116.107 3.73262e-12 -3.69226e-12)
(117.552 3.35723e-12 -3.27873e-12)
(118.997 2.74504e-12 -2.62572e-12)
(120.442 1.89759e-12 -1.73755e-12)
(121.888 8.29428e-13 -6.27278e-13)
(123.333 -3.27343e-13 4.88849e-13)
(124.779 -1.25466e-12 1.37537e-12)
(126.225 -1.98288e-12 2.07817e-12)
(127.671 -2.50218e-12 2.57187e-12)
(129.117 -2.83364e-12 2.8751e-12)
(130.563 -2.98155e-12 2.99016e-12)
(132.009 -2.94422e-12 2.91948e-12)
(133.456 -2.88098e-12 2.91102e-12)
(134.903 -2.69794e-12 2.74475e-12)
(136.349 -2.34949e-12 2.41298e-12)
(137.797 -1.92946e-12 1.91893e-12)
(139.244 -1.6639e-12 1.52884e-12)
(140.691 -1.29683e-12 1.29469e-12)
(142.139 -9.47142e-13 9.59411e-13)
(143.587 -6.0324e-13 6.32616e-13)
(145.035 -4.0308e-13 4.49663e-13)
(146.483 -2.75616e-13 3.35297e-13)
(147.932 -7.54797e-14 8.59165e-14)
(149.381 1.07368e-13 -1.62977e-13)
(150.83 4.19429e-13 -5.42302e-13)
(152.279 8.60627e-13 -9.71641e-13)
(153.729 1.1885e-12 -1.28776e-12)
(155.178 1.64381e-12 -1.7306e-12)
(156.629 1.99634e-12 -2.0711e-12)
(158.079 2.47033e-12 -2.53353e-12)
(159.53 3.06725e-12 -3.11829e-12)
(160.981 3.74079e-12 -3.78522e-12)
(162.432 3.93572e-12 -3.97315e-12)
(163.883 4.04911e-12 -4.07942e-12)
(165.335 4.27336e-12 -4.29639e-12)
(166.788 4.23832e-12 -4.25414e-12)
(168.24 3.948e-12 -3.95586e-12)
(169.693 3.74782e-12 -3.7479e-12)
(171.147 3.50154e-12 -3.48777e-12)
(172.6 3.18066e-12 -3.17404e-12)
(174.055 3.1022e-12 -3.10236e-12)
(175.509 3.09127e-12 -3.09093e-12)
(176.964 2.86225e-12 -2.86161e-12)
(178.42 2.6068e-12 -2.60604e-12)
(179.875 2.39135e-12 -2.39099e-12)
(181.332 2.20318e-12 -2.20266e-12)
(182.789 1.94724e-12 -1.94657e-12)
(184.246 1.62055e-12 -1.62006e-12)
(185.704 1.29073e-12 -1.29052e-12)
(187.162 8.23492e-13 -8.23492e-13)
(188.622 4.47277e-13 -4.46865e-13)
(190.081 1.69205e-13 -1.69018e-13)
(191.541 -7.74779e-15 7.7324e-15)
(193.002 -2.01013e-13 2.01007e-13)
(194.464 -3.00118e-13 3.00115e-13)
(195.926 -3.0114e-13 3.01138e-13)
(197.388 -1.98844e-13 1.98843e-13)
(198.852 -1.96824e-13 1.96824e-13)
(200.316 -1.95776e-13 1.95776e-13)
(201.781 -1.95002e-13 1.95002e-13)
(203.247 -1.94205e-13 1.94205e-13)
(204.714 -1.92371e-13 1.92371e-13)
(206.181 -2.31899e-13 2.31899e-13)
(207.65 -1.89891e-13 1.89891e-13)
(209.119 -1.88816e-13 1.88816e-13)
(210.589 -1.59808e-13 1.59808e-13)
(212.06 -2.08752e-13 2.08752e-13)
(213.533 -1.86735e-13 1.86735e-13)
(215.006 -1.67065e-13 1.67062e-13)
(216.48 -8.11723e-14 8.11529e-14)
(217.956 -5.81472e-14 5.83624e-14)
(219.432 -8.48779e-14 8.50837e-14)
(220.91 -4.71306e-14 4.73272e-14)
(222.389 -4.27175e-14 4.29051e-14)
(223.87 -1.03536e-13 1.03713e-13)
(225.352 -1.09486e-13 1.09652e-13)
(226.835 -1.41409e-13 1.41623e-13)
(228.319 -1.8345e-13 1.83592e-13)
(229.805 -1.7463e-13 1.7468e-13)
(231.293 -2.22937e-13 2.22928e-13)
(232.782 -2.25613e-13 2.25626e-13)
(234.274 -1.76357e-13 1.76406e-13)
(235.766 -1.73661e-13 1.7362e-13)
(237.261 -2.49146e-13 2.49137e-13)
(238.757 -1.89533e-13 1.89442e-13)
(240.256 -1.7008e-13 1.70045e-13)
(241.756 -1.69996e-13 1.69951e-13)
(243.259 -1.54421e-13 1.5436e-13)
(244.763 -1.83283e-13 1.83224e-13)
(246.27 -2.64747e-13 2.64749e-13)
(247.779 -3.23453e-13 3.23365e-13)
(249.291 -4.4101e-13 4.40938e-13)
(250.805 -5.49345e-13 5.49257e-13)
(252.322 -6.49408e-13 6.49368e-13)
(253.842 -7.42714e-13 7.42574e-13)
(255.364 -7.76353e-13 7.76242e-13)
(256.89 -7.85257e-13 7.8512e-13)
(258.418 -7.71323e-13 7.71188e-13)
(259.949 -7.29329e-13 7.29184e-13)
(261.484 -6.11546e-13 6.11403e-13)
(263.022 -5.04208e-13 5.04082e-13)
(264.564 -4.07197e-13 4.06974e-13)
(266.109 -3.20299e-13 3.19932e-13)
(267.658 -2.39886e-13 2.39558e-13)
(269.211 -1.69007e-13 1.68659e-13)
(270.769 -1.08182e-13 1.07851e-13)
(272.33 -5.83929e-14 5.81348e-14)
(273.896 -2.13968e-14 2.12475e-14)
(275.466 0 0)
(277.041 1.45034e-14 -1.45034e-14)
(278.621 3.82603e-14 -3.82603e-14)
(280.206 4.53135e-14 -4.53135e-14)
(281.796 3.01901e-14 -3.01901e-14)
(283.392 1.49943e-14 -1.49943e-14)
(284.993 1.87234e-14 -1.87234e-14)
(286.601 0 0)
(288.214 -2.24657e-14 2.24657e-14)
(289.834 -2.8124e-14 2.80905e-14)
(291.46 -1.4209e-14 1.4177e-14)
(293.093 2.87487e-14 -2.87783e-14)
(294.733 6.93544e-14 -6.88025e-14)
(296.38 8.15137e-14 -8.10464e-14)
(298.035 8.12943e-14 -8.09401e-14)
(299.698 6.2488e-14 -6.23213e-14)
(301.369 3.3724e-14 -3.35848e-14)
(303.048 1.57188e-14 -1.55805e-14)
(304.736 2.14082e-14 -2.12986e-14)
(306.433 1.20695e-14 -1.19578e-14)
(308.14 1.63343e-14 -1.62122e-14)
(309.855 5.37086e-15 -5.25785e-15)
(311.581 -1.87116e-15 1.99965e-15)
(313.318 -9.85542e-15 9.91029e-15)
(315.065 -3.55124e-14 3.55806e-14)
(316.823 -5.85038e-14 5.85783e-14)
(318.592 -8.46369e-14 8.4727e-14)
(320.373 -1.08283e-13 1.08365e-13)
(322.167 -1.06624e-13 1.06694e-13)
(323.973 -9.1873e-14 9.19157e-14)
(325.792 -8.39151e-14 8.39245e-14)
(327.625 -8.48619e-14 8.48642e-14)
(329.472 -8.55384e-14 8.55396e-14)
(331.333 -8.39478e-14 8.39514e-14)
(333.208 -6.99769e-14 6.99956e-14)
(335.1 -5.11708e-14 5.11708e-14)
(337.007 -2.08498e-14 2.08498e-14)
(338.93 -2.76782e-14 2.76782e-14)
(340.87 -5.20701e-14 5.20701e-14)
(342.828 -7.99845e-14 7.99845e-14)
(344.803 -6.71274e-14 6.71274e-14)
(346.797 -6.74859e-14 6.74859e-14)
(348.81 -9.89424e-14 9.89424e-14)
(350.842 -1.01191e-13 1.01191e-13)
(352.895 -1.05479e-13 1.05479e-13)
(354.968 -9.71251e-14 9.71251e-14)
(357.062 -1.0495e-13 1.0495e-13)
(359.178 -1.08411e-13 1.08411e-13)
(361.317 -1.00264e-13 1.00264e-13)
(363.479 -1.02264e-13 1.02264e-13)
(365.665 -9.11683e-14 9.11683e-14)
(367.875 -8.8381e-14 8.8381e-14)
(370.11 -1.11654e-13 1.11654e-13)
(372.371 -1.16961e-13 1.16961e-13)
(374.658 -1.27655e-13 1.27655e-13)
(376.973 -1.01457e-13 1.01457e-13)
(379.314 -7.63044e-14 7.63044e-14)
(381.684 -7.26029e-14 7.26029e-14)
(384.083 -9.07295e-14 9.07295e-14)
(386.512 -9.2588e-14 9.2588e-14)
(388.971 -8.63243e-14 8.63243e-14)
(391.461 -9.99005e-14 9.99005e-14)
(393.982 -9.73581e-14 9.73581e-14)
(396.536 -8.62259e-14 8.62259e-14)
(399.123 -7.57442e-14 7.57442e-14)
(401.743 -6.62164e-14 6.62164e-14)
(404.397 -5.73311e-14 5.73311e-14)
(407.086 -4.94937e-14 4.94937e-14)
(409.811 -4.46654e-14 4.46654e-14)
(412.571 -5.20175e-14 5.20175e-14)
(415.368 -4.44476e-14 4.44476e-14)
(418.203 -3.7419e-14 3.7419e-14)
(421.075 -3.0889e-14 3.0889e-14)
(423.985 -2.48012e-14 2.48012e-14)
(426.933 -1.89985e-14 1.89985e-14)
(429.921 -1.26481e-14 1.26481e-14)
(432.949 -4.87737e-16 4.87737e-16)
(436.016 4.55241e-15 -4.55241e-15)
(439.124 1.50636e-14 -1.50636e-14)
(442.273 1.81481e-14 -1.81481e-14)
(445.462 2.0689e-14 -2.0689e-14)
(448.693 2.0681e-14 -2.0681e-14)
(451.966 1.67307e-14 -1.67307e-14)
(455.281 1.30348e-14 -1.30348e-14)
(458.637 9.57575e-15 -9.57575e-15)
(462.036 6.3254e-15 -6.3254e-15)
(465.477 2.93824e-15 -2.93824e-15)
(468.96 -4.88102e-15 4.88102e-15)
(472.486 -6.87633e-15 6.87633e-15)
(476.053 -4.04115e-15 4.04115e-15)
(479.663 0 -1.52333e-34)
(483.314 0 1.73442e-34)
(487.006 0 2.50389e-35)
(490.74 5.01615e-16 -5.01615e-16)
(494.513 8.71702e-15 -8.71702e-15)
(498.326 7.61046e-15 -7.61046e-15)
(502.178 -1.35136e-15 1.35136e-15)
(506.067 -8.84773e-16 8.84773e-16)
(509.99 0 1.68493e-35)
(513.945 0 0)
(517.93 -8.93016e-15 8.93016e-15)
(521.942 -5.9672e-15 5.9672e-15)
(525.966 -2.86607e-15 2.86607e-15)
(529.988 4.42277e-15 -4.42277e-15)
(533.986 -4.00571e-15 4.00571e-15)
(537.926 -1.19101e-15 1.19101e-15)
(541.752 0 0)
(545.379 6.02793e-15 -6.02793e-15)
(548.667 -1.4072e-15 1.4072e-15)
(551.395 0 5.56449e-36)
(553.2 0 0)
(553.497 0 3.95365e-36)
(551.326 -3.36101e-15 3.36101e-15)
(545.129 2.07476e-16 -2.07476e-16)
(532.38 -2.7861e-15 2.7861e-15)
(509.068 -1.43436e-15 1.43436e-15)
(469.253 1.09611e-15 -1.09611e-15)
(405.38 1.20033e-16 -1.20033e-16)
(311.88 0 7.50205e-38)
(195.673 0 0)
(88.5643 -3.62029e-15 3.62029e-15)
(27.1772 -5.00072e-15 5.00072e-15)
(6.38516 -6.20878e-16 6.20878e-16)
(1.35669 0 0)
(0.280185 0 0)
(0.0572711 0 0)
(0.0116316 2.28561e-15 -2.28561e-15)
(0.0023492 0 0)
(0.000471919 0 0)
(9.43014e-05 -3.86027e-16 3.86027e-16)
(1.87455e-05 -5.23968e-15 5.23968e-15)
(3.70701e-06 -1.4505e-14 1.4505e-14)
(7.29331e-07 -1.92969e-14 1.92969e-14)
(1.42772e-07 -1.96675e-14 1.96675e-14)
(2.78171e-08 -1.56786e-14 1.56786e-14)
(5.40323e-09 -1.60436e-14 1.60436e-14)
(1.05297e-09 -1.20994e-14 1.20994e-14)
(2.06587e-10 -3.89793e-15 3.89793e-15)
(3.76387e-11 0 0)
(-1.12638e-12 0 0)
(-7.68632e-12 2.0952e-15 -2.0952e-15)
(-1.509e-12 0 0)
(7.60926e-12 0 0)
(1.77422e-11 0 0)
(2.18251e-11 0 0)
(7.47003e-12 -4.06333e-15 4.06333e-15)
(-1.28526e-11 -4.05368e-15 4.05368e-15)
(-2.15925e-11 -1.27789e-17 1.27789e-17)
(-1.92811e-11 0 0)
(-2.32389e-11 0 0)
(-2.3582e-11 0 0)
(-2.35731e-11 0 0)
(-3.28294e-11 0 0)
(-1.5309e-11 -1.93667e-15 1.93667e-15)
(-1.68247e-13 0 0)
(-9.00129e-12 0 0)
(-9.29659e-12 1.90449e-15 -1.90449e-15)
(1.00524e-11 2.80426e-18 -2.80426e-18)
(1.97309e-11 1.88278e-15 -1.88278e-15)
(1.01615e-11 0 0)
(-4.27985e-12 -3.09658e-15 3.09658e-15)
(-1.01932e-11 -2.46339e-15 2.46339e-15)
(-5.06298e-12 -5.52361e-15 5.52361e-15)
(-3.09582e-12 -4.89522e-15 4.89522e-15)
(6.60136e-12 -6.20744e-16 6.20744e-16)
(1.52104e-11 0 0)
(1.24731e-11 0 0)
(1.45799e-12 1.78889e-15 -1.78889e-15)
(-1.01937e-11 0 0)
(-1.08868e-11 -4.243e-15 4.243e-15)
(-3.79578e-12 -4.93482e-15 4.93482e-15)
(-4.14215e-12 -2.11276e-15 2.11276e-15)
(-1.28607e-11 -2.79299e-15 2.79299e-15)
(-1.75293e-11 0 0)
(-1.52713e-11 0 0)
(4.56158e-12 -1.71038e-15 1.71038e-15)
(9.25363e-12 2.14902e-18 -2.14902e-18)
(1.02764e-11 -1.69176e-15 1.69176e-15)
(1.67014e-11 0 0)
(-2.36374e-12 1.67417e-15 -1.67417e-15)
(-2.78579e-11 0 0)
(-2.38138e-11 0 0)
(-1.08611e-11 -7.9737e-16 7.9737e-16)
(-1.69453e-11 -4.87506e-15 4.87506e-15)
(-1.75837e-11 -5.66711e-15 5.66711e-15)
(-1.59388e-11 -9.70042e-15 9.70042e-15)
(-1.32238e-11 -1.048e-14 1.048e-14)
(-1.79158e-11 -8.04024e-15 8.04024e-15)
(-2.46373e-11 -2.41559e-15 2.41559e-15)
(-2.01533e-11 0 0)
(-1.17465e-11 0 0)
(-2.10862e-12 1.57122e-15 -1.57122e-15)
(-5.4638e-12 2.71733e-18 -2.71733e-18)
(-2.20836e-11 1.55319e-15 -1.55319e-15)
(-2.70137e-11 0 0)
(-1.1483e-11 0 0)
(2.53296e-12 -1.52913e-15 1.52913e-15)
(-6.38504e-12 0 0)
(-1.39655e-11 0 0)
(1.27431e-13 0 0)
(1.21721e-11 2.99665e-15 -2.99665e-15)
(7.99683e-12 2.98909e-15 -2.98909e-15)
(8.08868e-12 8.73602e-18 -8.73602e-18)
(1.8665e-11 0 0)
(1.35031e-11 0 0)
(-3.7681e-13 1.46023e-15 -1.46023e-15)
(-3.42748e-12 0 0)
(1.10978e-11 0 0)
(2.0088e-11 0 0)
(2.07672e-11 0 0)
(1.54942e-11 0 0)
(5.26661e-12 0 0)
(5.3962e-12 0 0)
(8.87751e-12 0 0)
(1.52043e-11 5.96168e-16 -5.96168e-16)
(3.30959e-11 3.97407e-15 -3.97407e-15)
(3.55801e-11 1.01029e-14 -1.01029e-14)
(1.71875e-11 1.34448e-14 -1.34448e-14)
(6.05022e-12 1.40274e-14 -1.40274e-14)
(-1.4311e-12 6.41929e-15 -6.41929e-15)
(-1.19148e-11 1.56298e-15 -1.56298e-15)
(-1.53343e-11 -5.68984e-16 5.68984e-16)
(-1.55911e-11 0 0)
(-9.92213e-12 0 0)
(3.9651e-12 0 0)
(4.115e-12 0 0)
(5.578e-12 0 0)
(1.13618e-11 0 0)
(1.17655e-11 0 0)
(5.31039e-12 0 0)
(7.2186e-12 -8.63408e-16 8.63408e-16)
(2.76077e-11 8.52622e-16 -8.52622e-16)
(4.12259e-11 0 0)
(4.4489e-11 0 0)
(2.9162e-11 -1.26745e-15 1.26745e-15)
(1.24909e-11 -1.79693e-18 1.79693e-18)
(3.5676e-12 -1.2563e-15 1.2563e-15)
(-3.22852e-12 -1.53986e-18 1.53986e-18)
(-9.07657e-12 -1.24362e-15 1.24362e-15)
(-1.60021e-11 0 0)
(-2.10336e-11 -8.23277e-16 8.23277e-16)
(-2.36527e-11 8.13736e-16 -8.13736e-16)
(-1.39349e-11 0 0)
(-2.69631e-11 1.2147e-15 -1.2147e-15)
(-2.28678e-11 -8.31716e-19 8.31716e-19)
(-2.94173e-12 1.20143e-15 -1.20143e-15)
(1.17335e-11 0 0)
(2.87728e-11 7.96192e-16 -7.96192e-16)
(3.29115e-11 -7.89788e-16 7.89788e-16)
(1.5032e-11 0 0)
(-4.23332e-12 -9.22231e-16 9.22231e-16)
(-8.70413e-12 -4.1856e-15 4.1856e-15)
(-1.06993e-11 -9.76731e-15 9.76731e-15)
(-1.36796e-11 -8.35118e-15 8.35118e-15)
(-2.42696e-11 0 0)
(-3.12461e-11 8.27227e-15 -8.27227e-15)
(-1.89565e-11 9.62639e-15 -9.62639e-15)
(-2.17368e-12 4.1287e-15 -4.1287e-15)
(-8.13402e-14 9.26006e-16 -9.26006e-16)
(2.12399e-11 0 0)
(4.95789e-11 9.53667e-16 -9.53667e-16)
(4.34784e-11 4.1454e-15 -4.1454e-15)
(2.16356e-11 6.24716e-16 -6.24716e-16)
(2.50788e-11 -1.86024e-15 1.86024e-15)
(3.20258e-11 -6.54566e-15 6.54566e-15)
(2.17966e-11 -4.60151e-15 4.60151e-15)
(9.24583e-12 -4.85889e-15 4.85889e-15)
(-1.35732e-12 -7.29869e-15 7.29869e-15)
(5.18811e-14 -1.19014e-14 1.19014e-14)
(2.81286e-12 -1.86481e-14 1.86481e-14)
(-1.7592e-12 -2.70983e-14 2.70983e-14)
(-1.02194e-11 -3.01195e-14 3.01195e-14)
(-1.73863e-11 -2.99997e-14 2.99997e-14)
(-1.80986e-11 -2.67106e-14 2.67106e-14)
(-2.37951e-11 -1.72219e-14 1.72219e-14)
(-2.12131e-11 -9.73764e-15 9.73764e-15)
(-9.08909e-12 -4.38451e-15 4.38451e-15)
(-7.90777e-12 -1.14459e-15 1.14459e-15)
(4.29108e-12 0 0)
(2.46134e-11 0 0)
(1.25255e-11 0 0)
(-3.30125e-12 0 0)
(-9.78084e-12 0 0)
(-1.89312e-12 6.73757e-16 -6.73757e-16)
(1.25458e-11 3.2878e-15 -3.2878e-15)
(1.43206e-12 -1.70447e-16 1.70447e-16)
(-1.22557e-11 -5.62367e-15 5.62367e-15)
(-8.1933e-12 -5.04451e-15 5.04451e-15)
(8.827e-12 -6.4604e-15 6.4604e-15)
(1.86843e-11 -1.91121e-15 1.91121e-15)
(8.5896e-12 6.41744e-16 -6.41744e-16)
(-1.75568e-11 3.705e-15 -3.705e-15)
(-4.07685e-11 8.70948e-16 -8.70948e-16)
(-4.13596e-11 0 0)
(-2.4711e-11 0 0)
(-2.58437e-11 -3.55736e-16 3.55736e-16)
(-3.17778e-11 -2.63909e-15 2.63909e-15)
(-1.14807e-11 -6.83278e-15 6.83278e-15)
(1.19285e-11 -5.26765e-15 5.26765e-15)
(1.58281e-11 -9.42753e-15 9.42753e-15)
(-2.88358e-12 -1.54674e-14 1.54674e-14)
(-1.7516e-11 -2.32403e-14 2.32403e-14)
(-1.31201e-11 -2.53345e-14 2.53345e-14)
(-8.38792e-12 -2.3595e-14 2.3595e-14)
(-3.07682e-12 -1.6258e-14 1.6258e-14)
(4.63271e-12 -1.06812e-14 1.06812e-14)
(1.20375e-11 -6.97901e-15 6.97901e-15)
(2.90209e-11 -5.13632e-15 5.13632e-15)
(3.36031e-11 -5.13813e-15 5.13813e-15)
(2.8551e-11 -6.96982e-15 6.96982e-15)
(1.37799e-11 -3.32505e-15 3.32505e-15)
(-3.78219e-12 -1.50961e-15 1.50961e-15)
)
;

boundaryField
{
    wedge0
    {
        type            wedge;
    }
    wedge1
    {
        type            wedge;
    }
    wedge2
    {
        type            wedge;
    }
    wedge3
    {
        type            wedge;
    }
    outlet
    {
        type            zeroGradient;
    }
    defaultFaces
    {
        type            empty;
    }
}


// ************************************************************************* //
