/*--------------------------------*- C++ -*----------------------------------*\
| =========                 |                                                 |
| \\      /  F ield         | OpenFOAM: The Open Source CFD Toolbox           |
|  \\    /   O peration     | Version:  2312                                  |
|   \\  /    A nd           | Website:  www.openfoam.com                      |
|    \\/     M anipulation  |                                                 |
\*---------------------------------------------------------------------------*/
FoamFile
{
    version     2.0;
    format      ascii;
    arch        "LSB;label=32;scalar=64";
    class       volScalarField;
    location    "0.031";
    object      p;
}
// * * * * * * * * * * * * * * * * * * * * * * * * * * * * * * * * * * * * * //

dimensions      [1 -1 -2 0 0 0 0];

internalField   nonuniform List<scalar> 
100
(
46974.4
46642.4
46154.6
45720.4
45230.1
44838.4
44297.1
43988.7
43357.4
43161.3
42431.8
42324.5
41555.1
41448.9
40739.6
40544.7
39955.8
39652.2
39167.9
38796.1
38368.5
37973.3
37569
37173.4
36779.9
36390.9
36005.8
35624.9
35248.4
34876.2
34508.6
34145.7
33787.6
33434.5
33086.6
32743.9
32406.9
32075.5
31750.6
31431.5
31120.6
30814.5
30521.1
30227.5
29958.5
29673.5
29441.7
29156.1
28982
28680.6
28590.3
28257.3
28272.1
27903.4
28024.2
27640.1
27835.8
27481.6
27695
27425.4
27592.5
27452.7
27518
27542.6
27452.7
27687
27369.4
27889.8
27245.3
28149.1
27085
28433.8
26935
28676.6
26873.5
28800.3
26969.7
28768
27237.4
28627.6
27627.4
28510.5
28074.5
28582.5
28599.8
29042.3
29472.6
30285.9
31334.2
32812.3
34386.3
35993.6
37288.3
38271.2
38883.5
39292.1
39489.2
39607
39653.7
39698.6
)
;

boundaryField
{
    sides
    {
        type            zeroGradient;
    }
    empty
    {
        type            empty;
    }
}


// ************************************************************************* //
