/*--------------------------------*- C++ -*----------------------------------*\
| =========                 |                                                 |
| \\      /  F ield         | OpenFOAM: The Open Source CFD Toolbox           |
|  \\    /   O peration     | Version:  2312                                  |
|   \\  /    A nd           | Website:  www.openfoam.com                      |
|    \\/     M anipulation  |                                                 |
\*---------------------------------------------------------------------------*/
FoamFile
{
    version     2.0;
    format      ascii;
    arch        "LSB;label=32;scalar=64";
    class       volScalarField;
    location    "0.031";
    object      rho;
}
// * * * * * * * * * * * * * * * * * * * * * * * * * * * * * * * * * * * * * //

dimensions      [1 -3 0 0 0 0 0];

internalField   nonuniform List<scalar> 
100
(
0.637367
0.63473
0.63142
0.628226
0.625084
0.621924
0.618907
0.615784
0.612938
0.609882
0.607192
0.604295
0.601631
0.598968
0.596175
0.593636
0.59067
0.587983
0.584852
0.581822
0.578485
0.575091
0.571511
0.567826
0.564026
0.560143
0.556194
0.5522
0.548179
0.544147
0.540117
0.536101
0.532108
0.528145
0.524219
0.520337
0.516502
0.512721
0.508997
0.505337
0.501744
0.498232
0.494792
0.491461
0.488199
0.485099
0.48204
0.479238
0.476413
0.473984
0.471441
0.469445
0.467266
0.465714
0.464018
0.462859
0.461755
0.460904
0.460417
0.459801
0.45984
0.459405
0.459828
0.45949
0.460211
0.459823
0.460856
0.460258
0.461644
0.460775
0.46242
0.461447
0.463035
0.462385
0.463434
0.46359
0.463733
0.464959
0.464288
0.466416
0.465575
0.468196
0.468216
0.471228
0.473247
0.477665
0.483627
0.492941
0.506197
0.52291
0.541054
0.558048
0.571738
0.581689
0.588122
0.591709
0.593532
0.59462
0.595226
0.595415
)
;

boundaryField
{
    sides
    {
        type            zeroGradient;
    }
    empty
    {
        type            empty;
    }
}


// ************************************************************************* //
