/*--------------------------------*- C++ -*----------------------------------*\
| =========                 |                                                 |
| \\      /  F ield         | OpenFOAM: The Open Source CFD Toolbox           |
|  \\    /   O peration     | Version:  2312                                  |
|   \\  /    A nd           | Website:  www.openfoam.com                      |
|    \\/     M anipulation  |                                                 |
\*---------------------------------------------------------------------------*/
FoamFile
{
    version     2.0;
    format      ascii;
    arch        "LSB;label=32;scalar=64";
    class       volScalarField;
    location    "0.031";
    object      thermo:e;
}
// * * * * * * * * * * * * * * * * * * * * * * * * * * * * * * * * * * * * * //

dimensions      [0 2 -2 0 0 0 0];

internalField   nonuniform List<scalar> 
100
(
184240
183698
182730
181931
180885
180230
178922
178577
176831
176914
174694
175088
172666
172990
170827
170737
169102
168584
167416
166690
165804
165065
164331
163655
163014
162408
161830
161276
160742
160224
159718
159222
158735
158254
157780
157311
156848
156389
155937
155488
155053
154610
154202
153754
153404
152916
152683
152087
152075
151265
151602
150473
151254
149779
150977
149281
150697
149055
150371
149106
150002
149383
149601
149845
149122
150521
148461
151480
147536
152717
146422
154037
145417
155038
144960
155302
145385
154671
146653
153435
148342
152226
149892
151629
151074
151992
152343
153589
154744
156864
158876
161238
163038
164473
165277
166001
166321
166512
166539
166674
)
;

boundaryField
{
    sides
    {
        type            zeroGradient;
    }
    empty
    {
        type            empty;
    }
}


// ************************************************************************* //
