/*--------------------------------*- C++ -*----------------------------------*\
| =========                 |                                                 |
| \\      /  F ield         | OpenFOAM: The Open Source CFD Toolbox           |
|  \\    /   O peration     | Version:  2312                                  |
|   \\  /    A nd           | Website:  www.openfoam.com                      |
|    \\/     M anipulation  |                                                 |
\*---------------------------------------------------------------------------*/
FoamFile
{
    version     2.0;
    format      ascii;
    arch        "LSB;label=32;scalar=64";
    class       volVectorField;
    location    "0.031";
    object      U;
}
// * * * * * * * * * * * * * * * * * * * * * * * * * * * * * * * * * * * * * //

dimensions      [0 1 -1 0 0 0 0];

internalField   nonuniform List<vector> 
100
(
(132.747 0 0)
(135.158 0 0)
(137.947 0 0)
(140.731 0 0)
(143.448 0 0)
(146.286 0 0)
(148.956 0 0)
(151.856 0 0)
(154.489 0 0)
(157.41 0 0)
(160.078 0 0)
(162.919 0 0)
(165.709 0 0)
(168.402 0 0)
(171.311 0 0)
(173.91 0 0)
(176.83 0 0)
(179.448 0 0)
(182.296 0 0)
(184.977 0 0)
(187.758 0 0)
(190.483 0 0)
(193.236 0 0)
(195.979 0 0)
(198.726 0 0)
(201.472 0 0)
(204.219 0 0)
(206.964 0 0)
(209.707 0 0)
(212.445 0 0)
(215.178 0 0)
(217.904 0 0)
(220.622 0 0)
(223.328 0 0)
(226.023 0 0)
(228.702 0 0)
(231.365 0 0)
(234.007 0 0)
(236.628 0 0)
(239.22 0 0)
(241.786 0 0)
(244.311 0 0)
(246.807 0 0)
(249.24 0 0)
(251.65 0 0)
(253.955 0 0)
(256.261 0 0)
(258.39 0 0)
(260.571 0 0)
(262.475 0 0)
(264.49 0 0)
(266.135 0 0)
(267.919 0 0)
(269.304 0 0)
(270.773 0 0)
(271.93 0 0)
(273.016 0 0)
(273.992 0 0)
(274.689 0 0)
(275.522 0 0)
(275.896 0 0)
(276.62 0 0)
(276.756 0 0)
(277.435 0 0)
(277.375 0 0)
(278.109 0 0)
(277.842 0 0)
(278.728 0 0)
(278.243 0 0)
(279.292 0 0)
(278.68 0 0)
(279.746 0 0)
(279.241 0 0)
(280.037 0 0)
(279.939 0 0)
(280.178 0 0)
(280.674 0 0)
(280.247 0 0)
(281.208 0 0)
(280.265 0 0)
(281.232 0 0)
(280.038 0 0)
(280.381 0 0)
(278.943 0 0)
(277.954 0 0)
(275.5 0 0)
(271.977 0 0)
(266.477 0 0)
(258.833 0 0)
(249.514 0 0)
(239.807 0 0)
(231.048 0 0)
(224.298 0 0)
(219.634 0 0)
(216.72 0 0)
(215.127 0 0)
(214.434 0 0)
(214.148 0 0)
(214.052 0 0)
(214.051 0 0)
)
;

boundaryField
{
    sides
    {
        type            mywaveTransmissive;
        gamma           1.4;
        value           nonuniform List<vector> 2((214.092 0 0) (131.785 0 0));
    }
    empty
    {
        type            empty;
    }
}


// ************************************************************************* //
