/*--------------------------------*- C++ -*----------------------------------*\
| =========                 |                                                 |
| \\      /  F ield         | OpenFOAM: The Open Source CFD Toolbox           |
|  \\    /   O peration     | Version:  2312                                  |
|   \\  /    A nd           | Website:  www.openfoam.com                      |
|    \\/     M anipulation  |                                                 |
\*---------------------------------------------------------------------------*/
FoamFile
{
    version     2.0;
    format      ascii;
    arch        "LSB;label=32;scalar=64";
    class       volScalarField;
    location    "0.071";
    object      rho;
}
// * * * * * * * * * * * * * * * * * * * * * * * * * * * * * * * * * * * * * //

dimensions      [1 -3 0 0 0 0 0];

internalField   nonuniform List<scalar> 
100
(
0.409273
0.40538
0.403265
0.400757
0.399746
0.398305
0.397937
0.397336
0.397208
0.397223
0.397051
0.397437
0.397082
0.397581
0.397028
0.397411
0.39671
0.396827
0.396035
0.395834
0.394987
0.394499
0.393611
0.392911
0.39199
0.391157
0.390218
0.38932
0.388381
0.38747
0.386552
0.385663
0.384789
0.383948
0.383134
0.38236
0.381621
0.380925
0.38027
0.37966
0.379093
0.37857
0.378089
0.377651
0.377251
0.37689
0.376568
0.376292
0.376072
0.375945
0.375973
0.376285
0.377114
0.378865
0.382155
0.387762
0.396314
0.407759
0.421002
0.434208
0.445654
0.45441
0.460444
0.464259
0.466516
0.467782
0.468472
0.468857
0.469101
0.469305
0.469521
0.46978
0.470093
0.470467
0.470898
0.471383
0.471918
0.472497
0.473114
0.473764
0.474445
0.475151
0.475883
0.476637
0.477414
0.478214
0.479035
0.479884
0.480749
0.481647
0.482551
0.483492
0.484421
0.485383
0.486307
0.487254
0.488136
0.489023
0.489821
0.490585
)
;

boundaryField
{
    sides
    {
        type            zeroGradient;
    }
    empty
    {
        type            empty;
    }
}


// ************************************************************************* //
