/*--------------------------------*- C++ -*----------------------------------*\
| =========                 |                                                 |
| \\      /  F ield         | OpenFOAM: The Open Source CFD Toolbox           |
|  \\    /   O peration     | Version:  2312                                  |
|   \\  /    A nd           | Website:  www.openfoam.com                      |
|    \\/     M anipulation  |                                                 |
\*---------------------------------------------------------------------------*/
FoamFile
{
    version     2.0;
    format      ascii;
    arch        "LSB;label=32;scalar=64";
    class       volVectorField;
    location    "0.071";
    object      U;
}
// * * * * * * * * * * * * * * * * * * * * * * * * * * * * * * * * * * * * * //

dimensions      [0 1 -1 0 0 0 0];

internalField   nonuniform List<vector> 
100
(
(187.284 0 0)
(189.863 0 0)
(191.146 0 0)
(193.507 0 0)
(194.745 0 0)
(196.795 0 0)
(198.109 0 0)
(199.752 0 0)
(201.227 0 0)
(202.446 0 0)
(204.083 0 0)
(204.95 0 0)
(206.669 0 0)
(207.321 0 0)
(209.003 0 0)
(209.585 0 0)
(211.127 0 0)
(211.742 0 0)
(213.096 0 0)
(213.784 0 0)
(214.954 0 0)
(215.707 0 0)
(216.728 0 0)
(217.515 0 0)
(218.429 0 0)
(219.218 0 0)
(220.056 0 0)
(220.826 0 0)
(221.606 0 0)
(222.343 0 0)
(223.073 0 0)
(223.771 0 0)
(224.454 0 0)
(225.107 0 0)
(225.741 0 0)
(226.346 0 0)
(226.928 0 0)
(227.481 0 0)
(228.008 0 0)
(228.505 0 0)
(228.973 0 0)
(229.409 0 0)
(229.815 0 0)
(230.187 0 0)
(230.527 0 0)
(230.83 0 0)
(231.095 0 0)
(231.311 0 0)
(231.466 0 0)
(231.527 0 0)
(231.438 0 0)
(231.088 0 0)
(230.285 0 0)
(228.701 0 0)
(225.867 0 0)
(221.247 0 0)
(214.499 0 0)
(205.85 0 0)
(196.227 0 0)
(186.938 0 0)
(179.064 0 0)
(173.109 0 0)
(169.003 0 0)
(166.381 0 0)
(164.807 0 0)
(163.918 0 0)
(163.456 0 0)
(163.25 0 0)
(163.198 0 0)
(163.236 0 0)
(163.327 0 0)
(163.45 0 0)
(163.592 0 0)
(163.745 0 0)
(163.907 0 0)
(164.075 0 0)
(164.248 0 0)
(164.427 0 0)
(164.61 0 0)
(164.799 0 0)
(164.994 0 0)
(165.196 0 0)
(165.405 0 0)
(165.621 0 0)
(165.846 0 0)
(166.077 0 0)
(166.321 0 0)
(166.566 0 0)
(166.833 0 0)
(167.093 0 0)
(167.384 0 0)
(167.663 0 0)
(167.985 0 0)
(168.288 0 0)
(168.646 0 0)
(168.981 0 0)
(169.38 0 0)
(169.756 0 0)
(170.195 0 0)
(170.607 0 0)
)
;

boundaryField
{
    sides
    {
        type            mywaveTransmissive;
        gamma           1.4;
        value           nonuniform List<vector> 2((170.634 0 0) (188.376 0 0));
    }
    empty
    {
        type            empty;
    }
}


// ************************************************************************* //
