/*--------------------------------*- C++ -*----------------------------------*\
| =========                 |                                                 |
| \\      /  F ield         | OpenFOAM: The Open Source CFD Toolbox           |
|  \\    /   O peration     | Version:  2312                                  |
|   \\  /    A nd           | Website:  www.openfoam.com                      |
|    \\/     M anipulation  |                                                 |
\*---------------------------------------------------------------------------*/
FoamFile
{
    version     2.0;
    format      ascii;
    arch        "LSB;label=32;scalar=64";
    class       volScalarField;
    location    "4e-05";
    object      p;
}
// * * * * * * * * * * * * * * * * * * * * * * * * * * * * * * * * * * * * * //

dimensions      [1 -1 -2 0 0 0 0];

internalField   nonuniform List<scalar> 
500
(
1.03931e+06
1.03934e+06
1.03935e+06
1.03935e+06
1.03935e+06
1.03935e+06
1.03935e+06
1.03935e+06
1.03935e+06
1.03935e+06
1.03935e+06
1.03935e+06
1.03935e+06
1.03934e+06
1.03934e+06
1.03934e+06
1.03934e+06
1.03933e+06
1.03933e+06
1.03933e+06
1.03932e+06
1.03932e+06
1.03932e+06
1.03931e+06
1.03931e+06
1.0393e+06
1.0393e+06
1.03929e+06
1.03929e+06
1.03928e+06
1.03928e+06
1.03927e+06
1.03927e+06
1.03926e+06
1.03926e+06
1.03925e+06
1.03925e+06
1.03924e+06
1.03924e+06
1.03923e+06
1.03923e+06
1.03926e+06
1.03927e+06
1.03919e+06
1.03924e+06
1.03925e+06
1.03923e+06
1.03922e+06
1.03923e+06
1.03923e+06
1.03924e+06
1.03925e+06
1.03926e+06
1.03927e+06
1.03929e+06
1.0393e+06
1.03933e+06
1.03935e+06
1.03938e+06
1.0394e+06
1.03944e+06
1.03947e+06
1.03951e+06
1.03955e+06
1.03959e+06
1.03963e+06
1.03968e+06
1.03973e+06
1.03978e+06
1.03983e+06
1.03988e+06
1.03994e+06
1.03999e+06
1.04005e+06
1.04011e+06
1.04016e+06
1.04022e+06
1.04028e+06
1.04035e+06
1.04042e+06
1.0405e+06
1.0406e+06
1.04073e+06
1.04087e+06
1.04103e+06
1.04121e+06
1.04142e+06
1.04164e+06
1.04188e+06
1.04214e+06
1.0424e+06
1.04268e+06
1.04295e+06
1.04324e+06
1.04355e+06
1.04388e+06
1.04427e+06
1.04472e+06
1.04523e+06
1.0458e+06
1.04643e+06
1.0471e+06
1.04779e+06
1.0485e+06
1.04924e+06
1.05005e+06
1.05098e+06
1.05204e+06
1.0532e+06
1.05446e+06
1.05578e+06
1.05714e+06
1.05859e+06
1.06023e+06
1.06206e+06
1.06406e+06
1.06619e+06
1.06838e+06
1.07072e+06
1.07337e+06
1.0763e+06
1.07942e+06
1.08264e+06
1.08606e+06
1.08995e+06
1.09424e+06
1.09869e+06
1.10322e+06
1.10842e+06
1.11418e+06
1.12012e+06
1.12622e+06
1.13326e+06
1.14098e+06
1.1486e+06
1.15715e+06
1.16678e+06
1.17632e+06
1.18694e+06
1.19916e+06
1.21087e+06
1.22589e+06
1.23883e+06
1.25715e+06
1.27144e+06
1.29306e+06
1.30942e+06
1.33483e+06
1.35372e+06
1.38368e+06
1.40553e+06
1.44041e+06
1.46593e+06
1.50557e+06
1.53599e+06
1.57999e+06
1.61742e+06
1.66601e+06
1.71292e+06
1.76852e+06
1.82767e+06
1.89324e+06
1.96472e+06
2.04318e+06
2.13026e+06
2.23082e+06
2.35838e+06
2.51736e+06
2.58229e+06
2.49394e+06
2.09126e+06
960998
168586
102084
100055
99999.1
99997.6
99997.6
99997.6
99997.6
99997.6
99997.6
99997.6
99997.6
99997.6
99997.6
99997.6
99997.6
99997.6
99997.6
99997.6
99997.6
99997.6
99997.6
99997.6
99997.6
99997.6
99997.6
99997.6
99997.6
99997.6
99997.6
99997.6
99997.6
99997.6
99997.6
99997.6
99997.6
99997.6
99997.6
99997.6
99997.6
99997.6
99997.6
99997.6
99997.6
99997.6
99997.6
99997.6
99997.6
99997.6
99997.6
99997.6
99997.6
99997.6
99997.6
99997.6
99997.6
99997.6
99997.6
99997.6
99997.6
99997.6
99997.6
99997.6
99997.6
99997.6
99997.6
99997.6
99997.6
99997.6
99997.6
99997.6
99997.6
99997.6
99997.6
99997.6
99997.6
99997.6
99997.6
99997.6
99997.6
99997.6
99997.6
99997.6
99997.6
99997.6
99997.6
99997.6
99997.6
99997.6
99997.6
99997.6
99997.6
99997.6
99997.6
99997.6
99997.6
99997.6
99997.6
99997.6
99997.6
99997.6
99997.6
99997.6
99997.6
99997.6
99997.6
99997.6
99997.6
99997.6
99997.6
99997.6
99997.6
99997.6
99997.6
99997.6
99997.6
99997.6
99997.6
99997.6
99997.6
99997.6
99997.6
99997.6
99997.6
99997.6
99997.6
99997.6
99997.6
99997.6
99997.6
99997.6
99997.6
99997.6
99997.6
99997.6
99997.6
99997.6
99997.6
99997.6
99997.6
99997.6
99997.6
99997.6
99997.6
99997.6
99997.6
99997.6
99997.6
99997.6
99997.6
99997.6
99997.6
99997.6
99997.6
99997.6
99997.6
99997.6
99997.6
99997.6
99997.6
99997.6
99997.6
99997.6
99997.6
99997.6
99997.6
99997.6
99997.6
99997.6
99997.6
99997.6
99997.6
99997.6
99997.6
99997.6
99997.6
99997.6
99997.6
99997.6
99997.6
99997.6
99997.6
99997.6
99997.6
99997.6
99997.6
99997.6
99997.6
99997.6
99997.6
99997.6
99997.6
99997.6
99997.6
99997.6
99997.6
99997.6
99997.6
99997.6
99997.6
99997.6
99997.6
99997.6
99997.6
99997.6
99997.6
99997.6
99997.6
99997.6
99997.6
99997.6
99997.6
99997.6
99997.6
99997.6
99997.6
99997.6
99997.6
99997.6
99997.6
99997.6
99997.6
99997.6
99997.6
99997.6
99997.6
99997.6
99997.6
99997.6
99997.6
99997.6
99997.6
99997.6
99997.6
99997.6
99997.6
99997.6
99997.6
99997.6
99997.6
99997.6
99997.6
99997.6
99997.6
99997.6
99997.6
99997.6
99997.6
99997.6
99997.6
99997.6
99997.6
99997.6
99997.6
99997.6
99997.6
99997.6
99997.6
99997.6
99997.6
99997.6
99997.6
99997.6
99997.6
99997.6
99997.6
99997.6
99997.6
99997.6
99997.6
99997.6
99997.6
99997.6
99997.6
99997.6
99997.6
99997.6
99997.6
99997.6
99997.6
99997.6
99997.6
99997.6
99997.6
99997.6
99997.6
99997.6
99997.6
99997.6
99997.6
99997.6
99997.6
99997.6
99997.6
99997.6
99997.6
99997.6
99997.6
99997.6
99997.6
99997.6
99997.6
99997.6
99997.6
99997.6
99997.6
99997.6
99997.6
99997.6
99997.6
99997.6
99997.6
99997.6
99997.6
99997.6
99997.6
99997.6
99997.6
99997.6
99997.6
99997.6
99997.6
99997.6
99997.6
99997.6
99997.6
99997.6
99997.6
)
;

boundaryField
{
    wedge0
    {
        type            wedge;
    }
    wedge1
    {
        type            wedge;
    }
    wedge2
    {
        type            wedge;
    }
    wedge3
    {
        type            wedge;
    }
    outlet
    {
        type            zeroGradient;
    }
    defaultFaces
    {
        type            empty;
    }
}


// ************************************************************************* //
