/*--------------------------------*- C++ -*----------------------------------*\
| =========                 |                                                 |
| \\      /  F ield         | OpenFOAM: The Open Source CFD Toolbox           |
|  \\    /   O peration     | Version:  2312                                  |
|   \\  /    A nd           | Website:  www.openfoam.com                      |
|    \\/     M anipulation  |                                                 |
\*---------------------------------------------------------------------------*/
FoamFile
{
    version     2.0;
    format      ascii;
    arch        "LSB;label=32;scalar=64";
    class       volScalarField;
    location    "4e-05";
    object      rho;
}
// * * * * * * * * * * * * * * * * * * * * * * * * * * * * * * * * * * * * * //

dimensions      [1 -3 0 0 0 0 0];

internalField   nonuniform List<scalar> 
500
(
0.000537834
0.000537914
0.000538061
0.000538292
0.000538629
0.000539092
0.000539702
0.00054048
0.000541449
0.000542629
0.000544044
0.000545718
0.000547674
0.000549937
0.000552534
0.000555491
0.000558839
0.000562608
0.000566831
0.000571543
0.000576783
0.000582591
0.000589013
0.000596097
0.000603899
0.000612476
0.000621895
0.000632228
0.000643558
0.000655974
0.000669579
0.000684487
0.00070083
0.000718753
0.000738425
0.000760038
0.000783812
0.000810001
0.000838901
0.000870854
0.000906259
0.00094562
0.000989449
0.00103773
0.00109016
0.00114642
0.0012066
0.001271
0.00133991
0.00141369
0.0014927
0.00157736
0.0016681
0.00176539
0.00186978
0.0019818
0.00210207
0.00223125
0.00237006
0.00251926
0.0026797
0.00285227
0.00303797
0.00323785
0.00345305
0.00368483
0.00393453
0.00420359
0.00449359
0.00480622
0.00514331
0.00550683
0.0058989
0.00632183
0.00677808
0.0072703
0.00780137
0.00837437
0.00899262
0.00965971
0.0103795
0.0111561
0.0119941
0.012898
0.0138732
0.014925
0.0160592
0.017282
0.0186002
0.0200206
0.0215509
0.0231989
0.0249732
0.0268828
0.0289373
0.0311473
0.033524
0.0360793
0.0388253
0.041775
0.0449416
0.0483387
0.0519806
0.0558822
0.0600595
0.0645311
0.0693163
0.074435
0.079906
0.0857494
0.091984
0.0986306
0.105715
0.113267
0.121316
0.129887
0.139007
0.148699
0.159002
0.169964
0.181621
0.194003
0.207136
0.221076
0.235897
0.251643
0.268333
0.286005
0.304808
0.324791
0.345959
0.368379
0.392271
0.41769
0.444556
0.473205
0.503777
0.536116
0.570677
0.607679
0.646966
0.68933
0.734132
0.78285
0.833982
0.890044
0.948552
1.01346
1.08089
1.15653
1.23458
1.32293
1.41375
1.51684
1.62323
1.74315
1.86881
2.00857
2.15755
2.32203
2.50096
2.6971
2.91156
3.14644
3.40458
3.69229
4.02926
4.43108
4.70778
4.78126
4.43902
2.77648
1.36447
1.17281
1.16142
1.16101
1.161
1.161
1.161
1.161
1.161
1.161
1.161
1.161
1.161
1.161
1.161
1.161
1.161
1.161
1.161
1.161
1.161
1.161
1.161
1.161
1.161
1.161
1.161
1.161
1.161
1.161
1.161
1.161
1.161
1.161
1.161
1.161
1.161
1.161
1.161
1.161
1.161
1.161
1.161
1.161
1.161
1.161
1.161
1.161
1.161
1.161
1.161
1.161
1.161
1.161
1.161
1.161
1.161
1.161
1.161
1.161
1.161
1.161
1.161
1.161
1.161
1.161
1.161
1.161
1.161
1.161
1.161
1.161
1.161
1.161
1.161
1.161
1.161
1.161
1.161
1.161
1.161
1.161
1.161
1.161
1.161
1.161
1.161
1.161
1.161
1.161
1.161
1.161
1.161
1.161
1.161
1.161
1.161
1.161
1.161
1.161
1.161
1.161
1.161
1.161
1.161
1.161
1.161
1.161
1.161
1.161
1.161
1.161
1.161
1.161
1.161
1.161
1.161
1.161
1.161
1.161
1.161
1.161
1.161
1.161
1.161
1.161
1.161
1.161
1.161
1.161
1.161
1.161
1.161
1.161
1.161
1.161
1.161
1.161
1.161
1.161
1.161
1.161
1.161
1.161
1.161
1.161
1.161
1.161
1.161
1.161
1.161
1.161
1.161
1.161
1.161
1.161
1.161
1.161
1.161
1.161
1.161
1.161
1.161
1.161
1.161
1.161
1.161
1.161
1.161
1.161
1.161
1.161
1.161
1.161
1.161
1.161
1.161
1.161
1.161
1.161
1.161
1.161
1.161
1.161
1.161
1.161
1.161
1.161
1.161
1.161
1.161
1.161
1.161
1.161
1.161
1.161
1.161
1.161
1.161
1.161
1.161
1.161
1.161
1.161
1.161
1.161
1.161
1.161
1.161
1.161
1.161
1.161
1.161
1.161
1.161
1.161
1.161
1.161
1.161
1.161
1.161
1.161
1.161
1.161
1.161
1.161
1.161
1.161
1.161
1.161
1.161
1.161
1.161
1.161
1.161
1.161
1.161
1.161
1.161
1.161
1.161
1.161
1.161
1.161
1.161
1.161
1.161
1.161
1.161
1.161
1.161
1.161
1.161
1.161
1.161
1.161
1.161
1.161
1.161
1.161
1.161
1.161
1.161
1.161
1.161
1.161
1.161
1.161
1.161
1.161
1.161
1.161
1.161
1.161
1.161
1.161
1.161
1.161
1.161
1.161
1.161
1.161
1.161
1.161
1.161
1.161
1.161
1.161
1.161
1.161
1.161
1.161
1.161
1.161
1.161
1.161
1.161
1.161
1.161
1.161
1.161
1.161
1.161
1.161
1.161
1.161
1.161
1.161
1.161
1.161
1.161
1.161
1.161
1.161
1.161
1.161
1.161
1.161
1.161
1.161
1.161
1.161
1.161
1.161
1.161
1.161
1.161
1.161
)
;

boundaryField
{
    wedge0
    {
        type            wedge;
    }
    wedge1
    {
        type            wedge;
    }
    wedge2
    {
        type            wedge;
    }
    wedge3
    {
        type            wedge;
    }
    outlet
    {
        type            zeroGradient;
    }
    defaultFaces
    {
        type            empty;
    }
}


// ************************************************************************* //
