/*--------------------------------*- C++ -*----------------------------------*\
| =========                 |                                                 |
| \\      /  F ield         | OpenFOAM: The Open Source CFD Toolbox           |
|  \\    /   O peration     | Version:  2312                                  |
|   \\  /    A nd           | Website:  www.openfoam.com                      |
|    \\/     M anipulation  |                                                 |
\*---------------------------------------------------------------------------*/
FoamFile
{
    version     2.0;
    format      ascii;
    arch        "LSB;label=32;scalar=64";
    class       volScalarField;
    location    "4e-05";
    object      T;
}
// * * * * * * * * * * * * * * * * * * * * * * * * * * * * * * * * * * * * * //

dimensions      [0 0 0 1 0 0 0];

internalField   nonuniform List<scalar> 
500
(
6.73075e+06
6.72988e+06
6.72811e+06
6.72524e+06
6.72104e+06
6.71527e+06
6.70768e+06
6.69802e+06
6.68603e+06
6.67148e+06
6.65412e+06
6.6337e+06
6.61001e+06
6.58279e+06
6.55184e+06
6.51694e+06
6.47789e+06
6.43448e+06
6.38652e+06
6.33385e+06
6.27629e+06
6.21369e+06
6.14592e+06
6.07286e+06
5.99438e+06
5.91041e+06
5.82086e+06
5.7257e+06
5.62487e+06
5.51838e+06
5.40622e+06
5.28844e+06
5.1651e+06
5.03627e+06
4.90208e+06
4.76266e+06
4.61818e+06
4.46884e+06
4.31487e+06
4.15654e+06
3.99413e+06
3.82801e+06
3.65847e+06
3.48798e+06
3.32039e+06
3.15747e+06
2.99992e+06
2.84792e+06
2.70145e+06
2.56048e+06
2.42497e+06
2.29484e+06
2.17003e+06
2.05046e+06
1.93602e+06
1.82662e+06
1.72214e+06
1.62247e+06
1.52749e+06
1.43706e+06
1.35106e+06
1.26936e+06
1.19181e+06
1.11828e+06
1.04863e+06
982712
920388
861516
805956
753569
704217
657764
614078
573028
534485
498326
464428
432676
402954
375153
349165
324890
302227
281083
261367
242991
225874
209937
195104
181306
168475
156547
145464
135168
125608
116733
108497
100857
93769.4
87196.3
81101
75449.4
70209.7
65352.1
60849.4
56677
52810.9
49228.6
45908.7
42831.6
39978.5
37332.4
34878.5
32603.2
30492.7
28534.1
26715.5
25025.4
23455.2
21996.6
20641
19379.8
18205
17111.1
16093.5
15145.8
14261.5
13435.4
12666.1
11948.6
11277.3
10648.6
10062.5
9514.54
8999.27
8517.33
8067.04
7642.44
7244.37
6873.35
6518.98
6194.24
5877.62
5593.35
5310.12
5060.26
4808.19
4587.59
4362.25
4167.18
3965.38
3792.37
3611.65
3457.21
3295.88
3157.07
3014.54
2889.05
2765.28
2652.81
2545.4
2444.97
2350.39
2261.78
2179.39
2104.42
2038.7
1978.79
1910.52
1816.8
1640.91
1205.57
430.351
303.177
300.064
300.002
300
300
300
300
300
300
300
300
300
300
300
300
300
300
300
300
300
300
300
300
300
300
300
300
300
300
300
300
300
300
300
300
300
300
300
300
300
300
300
300
300
300
300
300
300
300
300
300
300
300
300
300
300
300
300
300
300
300
300
300
300
300
300
300
300
300
300
300
300
300
300
300
300
300
300
300
300
300
300
300
300
300
300
300
300
300
300
300
300
300
300
300
300
300
300
300
300
300
300
300
300
300
300
300
300
300
300
300
300
300
300
300
300
300
300
300
300
300
300
300
300
300
300
300
300
300
300
300
300
300
300
300
300
300
300
300
300
300
300
300
300
300
300
300
300
300
300
300
300
300
300
300
300
300
300
300
300
300
300
300
300
300
300
300
300
300
300
300
300
300
300
300
300
300
300
300
300
300
300
300
300
300
300
300
300
300
300
300
300
300
300
300
300
300
300
300
300
300
300
300
300
300
300
300
300
300
300
300
300
300
300
300
300
300
300
300
300
300
300
300
300
300
300
300
300
300
300
300
300
300
300
300
300
300
300
300
300
300
300
300
300
300
300
300
300
300
300
300
300
300
300
300
300
300
300
300
300
300
300
300
300
300
300
300
300
300
300
300
300
300
300
300
300
300
300
300
300
300
300
300
300
300
300
300
300
300
300
300
300
300
300
300
300
300
300
300
300
300
300
300
300
300
300
300
300
300
300
300
300
300
300
300
300
300
300
300
300
300
300
300
300
300
300
300
)
;

boundaryField
{
    wedge0
    {
        type            wedge;
    }
    wedge1
    {
        type            wedge;
    }
    wedge2
    {
        type            wedge;
    }
    wedge3
    {
        type            wedge;
    }
    outlet
    {
        type            zeroGradient;
    }
    defaultFaces
    {
        type            empty;
    }
}


// ************************************************************************* //
