/*--------------------------------*- C++ -*----------------------------------*\
| =========                 |                                                 |
| \\      /  F ield         | OpenFOAM: The Open Source CFD Toolbox           |
|  \\    /   O peration     | Version:  2312                                  |
|   \\  /    A nd           | Website:  www.openfoam.com                      |
|    \\/     M anipulation  |                                                 |
\*---------------------------------------------------------------------------*/
FoamFile
{
    version     2.0;
    format      ascii;
    arch        "LSB;label=32;scalar=64";
    class       volScalarField;
    location    "4e-05";
    object      thermo:e;
}
// * * * * * * * * * * * * * * * * * * * * * * * * * * * * * * * * * * * * * //

dimensions      [0 2 -2 0 0 0 0];

internalField   nonuniform List<scalar> 
500
(
4.83066e+09
4.83004e+09
4.82876e+09
4.82671e+09
4.82369e+09
4.81955e+09
4.8141e+09
4.80717e+09
4.79857e+09
4.78812e+09
4.77566e+09
4.76101e+09
4.744e+09
4.72447e+09
4.70226e+09
4.67721e+09
4.64918e+09
4.61802e+09
4.58361e+09
4.5458e+09
4.50449e+09
4.45957e+09
4.41093e+09
4.35849e+09
4.30217e+09
4.2419e+09
4.17763e+09
4.10933e+09
4.03697e+09
3.96054e+09
3.88005e+09
3.79552e+09
3.70699e+09
3.61453e+09
3.51822e+09
3.41816e+09
3.31446e+09
3.20728e+09
3.09678e+09
2.98315e+09
2.86658e+09
2.74736e+09
2.62568e+09
2.50332e+09
2.38305e+09
2.26612e+09
2.15304e+09
2.04395e+09
1.93883e+09
1.83766e+09
1.7404e+09
1.64701e+09
1.55743e+09
1.47161e+09
1.38948e+09
1.31096e+09
1.23598e+09
1.16445e+09
1.09628e+09
1.03138e+09
9.69659e+08
9.1102e+08
8.55365e+08
8.02592e+08
7.52602e+08
7.05293e+08
6.60562e+08
6.1831e+08
5.78434e+08
5.40836e+08
5.05416e+08
4.72077e+08
4.40724e+08
4.11262e+08
3.836e+08
3.57648e+08
3.3332e+08
3.10531e+08
2.892e+08
2.69247e+08
2.50596e+08
2.33173e+08
2.16909e+08
2.01733e+08
1.87583e+08
1.74395e+08
1.6211e+08
1.50672e+08
1.40026e+08
1.30123e+08
1.20914e+08
1.12354e+08
1.04399e+08
9.70103e+07
9.01488e+07
8.37793e+07
7.78686e+07
7.2385e+07
6.72983e+07
6.25808e+07
5.82062e+07
5.415e+07
5.03895e+07
4.69032e+07
4.36716e+07
4.06771e+07
3.79024e+07
3.53314e+07
3.29487e+07
3.07402e+07
2.86925e+07
2.67935e+07
2.50323e+07
2.33993e+07
2.18846e+07
2.04789e+07
1.91737e+07
1.79608e+07
1.68338e+07
1.5787e+07
1.4814e+07
1.39089e+07
1.30657e+07
1.22806e+07
1.15503e+07
1.08701e+07
1.02355e+07
9.6426e+06
9.09043e+06
8.57548e+06
8.0937e+06
7.6425e+06
7.22187e+06
6.82859e+06
6.45877e+06
6.11288e+06
5.78971e+06
5.48498e+06
5.19928e+06
4.933e+06
4.67867e+06
4.44561e+06
4.21837e+06
4.01435e+06
3.81107e+06
3.63175e+06
3.45084e+06
3.29251e+06
3.13079e+06
2.99079e+06
2.84595e+06
2.72179e+06
2.59208e+06
2.48124e+06
2.36546e+06
2.26583e+06
2.16353e+06
2.07347e+06
1.98464e+06
1.90392e+06
1.82683e+06
1.75475e+06
1.68687e+06
1.62328e+06
1.56414e+06
1.51034e+06
1.46317e+06
1.42018e+06
1.37118e+06
1.30392e+06
1.17768e+06
865238
308863
217590
215356
215311
215310
215310
215310
215310
215310
215310
215310
215310
215310
215310
215310
215310
215310
215310
215310
215310
215310
215310
215310
215310
215310
215310
215310
215310
215310
215310
215310
215310
215310
215310
215310
215310
215310
215310
215310
215310
215310
215310
215310
215310
215310
215310
215310
215310
215310
215310
215310
215310
215310
215310
215310
215310
215310
215310
215310
215310
215310
215310
215310
215310
215310
215310
215310
215310
215310
215310
215310
215310
215310
215310
215310
215310
215310
215310
215310
215310
215310
215310
215310
215310
215310
215310
215310
215310
215310
215310
215310
215310
215310
215310
215310
215310
215310
215310
215310
215310
215310
215310
215310
215310
215310
215310
215310
215310
215310
215310
215310
215310
215310
215310
215310
215310
215310
215310
215310
215310
215310
215310
215310
215310
215310
215310
215310
215310
215310
215310
215310
215310
215310
215310
215310
215310
215310
215310
215310
215310
215310
215310
215310
215310
215310
215310
215310
215310
215310
215310
215310
215310
215310
215310
215310
215310
215310
215310
215310
215310
215310
215310
215310
215310
215310
215310
215310
215310
215310
215310
215310
215310
215310
215310
215310
215310
215310
215310
215310
215310
215310
215310
215310
215310
215310
215310
215310
215310
215310
215310
215310
215310
215310
215310
215310
215310
215310
215310
215310
215310
215310
215310
215310
215310
215310
215310
215310
215310
215310
215310
215310
215310
215310
215310
215310
215310
215310
215310
215310
215310
215310
215310
215310
215310
215310
215310
215310
215310
215310
215310
215310
215310
215310
215310
215310
215310
215310
215310
215310
215310
215310
215310
215310
215310
215310
215310
215310
215310
215310
215310
215310
215310
215310
215310
215310
215310
215310
215310
215310
215310
215310
215310
215310
215310
215310
215310
215310
215310
215310
215310
215310
215310
215310
215310
215310
215310
215310
215310
215310
215310
215310
215310
215310
215310
215310
215310
215310
215310
215310
215310
215310
215310
215310
215310
215310
215310
215310
215310
215310
215310
215310
215310
215310
215310
215310
215310
215310
215310
215310
215310
215310
215310
215310
215310
215310
215310
215310
215310
215310
215310
215310
215310
215310
215310
215310
215310
215310
215310
)
;

boundaryField
{
    wedge0
    {
        type            wedge;
    }
    wedge1
    {
        type            wedge;
    }
    wedge2
    {
        type            wedge;
    }
    wedge3
    {
        type            wedge;
    }
    outlet
    {
        type            zeroGradient;
    }
    defaultFaces
    {
        type            empty;
    }
}


// ************************************************************************* //
