/*--------------------------------*- C++ -*----------------------------------*\
| =========                 |                                                 |
| \\      /  F ield         | OpenFOAM: The Open Source CFD Toolbox           |
|  \\    /   O peration     | Version:  2312                                  |
|   \\  /    A nd           | Website:  www.openfoam.com                      |
|    \\/     M anipulation  |                                                 |
\*---------------------------------------------------------------------------*/
FoamFile
{
    version     2.0;
    format      ascii;
    arch        "LSB;label=32;scalar=64";
    class       volVectorField;
    location    "4e-05";
    object      U;
}
// * * * * * * * * * * * * * * * * * * * * * * * * * * * * * * * * * * * * * //

dimensions      [0 1 -1 0 0 0 0];

internalField   nonuniform List<vector> 
500
(
(5.60665 -1.11589e-08 1.18303e-08)
(11.4102 -1.15255e-08 1.22215e-08)
(17.8987 -1.26581e-08 1.33739e-08)
(24.567 -1.34447e-08 1.42244e-08)
(31.3168 -1.26729e-08 1.33855e-08)
(38.1166 -1.33098e-08 1.39773e-08)
(44.955 -1.37748e-08 1.44149e-08)
(51.8262 -1.45637e-08 1.51866e-08)
(58.7261 -1.41408e-08 1.47373e-08)
(65.6261 -1.28121e-08 1.33876e-08)
(72.5249 -1.18078e-08 1.23295e-08)
(79.4348 -1.07394e-08 1.12176e-08)
(86.354 -9.61767e-09 1.00903e-08)
(93.2835 -8.24999e-09 8.68445e-09)
(100.241 -6.61178e-09 7.04366e-09)
(107.222 -4.75509e-09 5.16074e-09)
(114.227 -2.58732e-09 2.90917e-09)
(121.257 -1.4057e-09 1.68948e-09)
(128.31 -3.60008e-10 5.64226e-10)
(135.387 -1.78426e-10 3.3404e-10)
(142.494 -1.5561e-10 2.99416e-10)
(149.631 -1.53448e-10 3.41825e-10)
(156.81 -4.06311e-10 6.28049e-10)
(164.033 -9.30021e-10 1.12084e-09)
(171.304 -1.1157e-09 1.27768e-09)
(178.628 -1.04075e-09 1.20423e-09)
(186.013 -1.20401e-09 1.35406e-09)
(193.462 -1.62292e-09 1.78921e-09)
(200.981 -1.32894e-09 1.44087e-09)
(208.577 -1.23656e-09 1.36967e-09)
(216.258 -1.24512e-09 1.36839e-09)
(224.031 -1.49563e-09 1.58088e-09)
(231.907 -1.11064e-09 1.17743e-09)
(239.891 -8.63463e-10 9.22778e-10)
(247.995 -7.92323e-10 7.9231e-10)
(256.228 -7.81225e-10 7.81227e-10)
(264.602 -7.48925e-10 7.48927e-10)
(273.132 -7.92557e-10 7.92557e-10)
(281.827 -8.70099e-10 8.70099e-10)
(290.735 -1.10977e-09 1.10977e-09)
(299.677 -1.13763e-09 1.13763e-09)
(308.787 -1.08438e-09 1.08438e-09)
(315.791 -1.06249e-09 1.06249e-09)
(317.744 -1.04173e-09 1.04173e-09)
(318.555 -8.94768e-10 8.94768e-10)
(322.468 -8.9037e-10 8.9037e-10)
(328.376 -8.69518e-10 8.69518e-10)
(334.71 -8.73435e-10 8.73435e-10)
(341.182 -6.7441e-10 6.7441e-10)
(347.723 -5.57287e-10 5.57287e-10)
(354.278 -4.31038e-10 4.31038e-10)
(360.864 -3.52461e-10 3.52461e-10)
(367.427 -2.76929e-10 2.76929e-10)
(374.033 -2.06218e-10 2.06218e-10)
(380.604 -1.87929e-10 1.87929e-10)
(387.219 -9.85359e-11 9.85359e-11)
(393.8 -1.28469e-10 1.28469e-10)
(400.426 -7.84085e-11 7.84085e-11)
(407.021 -1.10389e-10 1.10389e-10)
(413.652 1.7338e-12 -1.7338e-12)
(420.275 -1.66851e-12 1.66851e-12)
(426.911 1.65002e-12 -1.65002e-12)
(433.56 1.67263e-12 -1.67263e-12)
(440.207 1.60024e-12 -1.60024e-12)
(446.875 0 1.22803e-31)
(453.536 1.53047e-11 -1.53047e-11)
(460.214 -1.03953e-11 1.03953e-11)
(466.886 5.00621e-11 -5.00621e-11)
(473.569 3.92275e-11 -3.92275e-11)
(480.251 1.57749e-11 -1.57749e-11)
(486.942 7.09146e-12 -7.09146e-12)
(493.638 5.67734e-12 -5.67734e-12)
(500.343 1.54329e-12 -1.54329e-12)
(507.053 6.93044e-12 -6.93044e-12)
(513.77 -1.40012e-11 1.40012e-11)
(520.494 1.26968e-11 -1.26968e-11)
(527.224 1.17438e-11 -1.17438e-11)
(533.965 1.15898e-11 -1.15898e-11)
(540.715 6.50758e-12 -6.50758e-12)
(547.481 7.53947e-13 -7.53473e-13)
(554.249 7.15091e-12 -7.15165e-12)
(561.036 -7.67754e-13 7.67793e-13)
(567.807 1.60639e-11 -1.60644e-11)
(574.608 5.40601e-12 -4.86957e-12)
(581.38 1.41224e-11 -1.4119e-11)
(588.205 4.37377e-13 4.36336e-14)
(595.011 4.94106e-13 -4.47786e-12)
(601.852 -4.17802e-12 6.18796e-13)
(608.692 -3.98188e-12 3.98232e-12)
(615.534 -6.08409e-13 6.08376e-13)
(622.387 -9.44527e-13 1.09954e-12)
(629.252 -3.85543e-12 3.84667e-12)
(636.138 -5.90687e-13 2.77153e-12)
(643.036 -3.50596e-12 1.15947e-12)
(649.958 -3.73735e-12 3.73755e-12)
(656.882 -2.36203e-12 1.32474e-12)
(663.786 -1.05232e-12 8.68471e-13)
(670.649 5.98692e-13 -8.06394e-13)
(677.543 -2.70143e-12 2.70139e-12)
(684.448 1.29508e-12 -1.29748e-12)
(691.376 -2.84985e-13 1.26487e-13)
(698.319 4.31352e-13 -7.4642e-13)
(705.298 -5.16406e-13 1.44822e-12)
(712.326 1.45331e-12 -1.87178e-12)
(719.422 -1.87582e-12 1.66375e-12)
(726.477 1.55547e-12 -1.69118e-12)
(733.477 -5.61191e-13 8.40197e-13)
(740.421 3.19307e-13 -7.88709e-13)
(747.41 2.34132e-13 2.10051e-13)
(754.435 3.05291e-13 -1.12577e-12)
(761.576 -2.89897e-13 1.25024e-13)
(768.84 7.87378e-13 -9.643e-13)
(776.137 2.85049e-13 -8.33848e-13)
(783.307 1.3826e-13 -1.07568e-13)
(790.372 4.7871e-13 -4.78723e-13)
(797.478 1.47411e-12 -1.39608e-12)
(804.708 1.65228e-12 -1.5644e-12)
(812.187 9.23615e-13 -1.0821e-12)
(819.729 4.60137e-13 -5.21918e-13)
(827.041 4.10631e-14 -4.82437e-14)
(834.262 -3.06475e-13 3.04698e-13)
(841.598 4.99443e-13 -4.43408e-13)
(849.261 3.71564e-13 -3.11025e-13)
(857.092 2.74519e-13 -2.7452e-13)
(864.585 2.4926e-13 -2.39342e-13)
(872.022 4.08483e-13 -3.97824e-13)
(879.738 6.9246e-13 -6.97471e-13)
(887.892 7.58332e-13 -8.13739e-13)
(895.768 6.35191e-13 -7.00097e-13)
(903.4 5.2034e-13 -5.64124e-13)
(911.418 5.18905e-13 -6.34748e-13)
(919.968 3.11515e-13 -4.85759e-13)
(928.002 4.48691e-13 -4.43596e-13)
(936.027 3.05564e-13 -3.01674e-13)
(944.771 3.77912e-13 -3.67069e-13)
(953.498 -2.46074e-14 5.20143e-14)
(961.63 2.28747e-13 -2.02903e-13)
(970.682 1.82098e-13 -1.60989e-13)
(979.805 1.27992e-13 -1.19667e-13)
(988.415 9.34341e-14 -8.53346e-14)
(998.615 3.35496e-14 -2.69962e-14)
(1007.05 4.30076e-14 -3.8833e-14)
(1018.29 -6.72026e-14 7.38112e-14)
(1026.41 -5.2976e-14 5.53318e-14)
(1038.64 -5.01817e-14 5.3571e-14)
(1046.53 -6.58093e-14 7.0397e-14)
(1059.66 -8.72018e-14 8.76624e-14)
(1067.53 -3.75111e-14 3.80935e-14)
(1081.68 -6.34628e-14 6.35512e-14)
(1089.51 7.93257e-15 -7.88776e-15)
(1104.61 1.28107e-14 -1.28089e-14)
(1112.56 -6.46857e-15 6.52195e-15)
(1128.19 -5.92653e-14 5.9207e-14)
(1136.63 2.21184e-14 -2.21428e-14)
(1152.04 9.46299e-15 -9.4123e-15)
(1161.66 -3.36205e-14 3.35733e-14)
(1176.4 2.49203e-14 -2.49266e-14)
(1187.55 -5.83083e-14 5.82623e-14)
(1201.66 5.72157e-15 -5.72183e-15)
(1214.85 -1.5517e-14 1.54953e-14)
(1229.13 -1.08728e-14 1.0926e-14)
(1243.64 -5.86208e-14 5.86906e-14)
(1258.59 1.51854e-14 -1.51688e-14)
(1273.93 -4.53422e-14 4.54076e-14)
(1289.95 -4.42245e-14 4.42429e-14)
(1307.68 -3.80766e-14 3.80946e-14)
(1330.63 -4.09505e-14 4.09643e-14)
(1357.96 -1.61533e-14 1.61676e-14)
(1361.27 -1.21661e-14 1.21744e-14)
(1335 -9.08384e-15 9.09373e-15)
(1208.27 -5.81242e-15 5.82483e-15)
(769.324 -1.00001e-14 9.99515e-15)
(126.862 -4.00189e-15 3.98235e-15)
(5.25248 -7.08627e-15 7.08315e-15)
(0.145427 -2.20139e-14 2.20106e-14)
(0.00396726 -2.17589e-14 2.17561e-14)
(0.000108048 -7.33921e-15 7.33593e-15)
(2.93187e-06 -5.22987e-16 5.21519e-16)
(7.9222e-08 -5.83399e-16 5.82411e-16)
(2.13071e-09 1.38304e-14 -1.38314e-14)
(5.22018e-11 1.49041e-14 -1.49046e-14)
(-3.88985e-12 2.59616e-15 -2.59616e-15)
(-6.35471e-12 0 0)
(-7.83113e-12 0 0)
(3.12866e-12 0 0)
(1.71954e-11 0 0)
(6.90305e-12 0 0)
(-1.21613e-11 0 0)
(-1.2701e-11 0 0)
(-4.09591e-12 1.40742e-15 -1.40742e-15)
(-2.55263e-12 9.5279e-15 -9.5279e-15)
(-1.30545e-12 1.01818e-15 -1.01818e-15)
(9.89134e-14 0 0)
(-1.84641e-12 -3.07966e-15 3.07966e-15)
(-5.23119e-12 1.75348e-15 -1.75348e-15)
(-2.49959e-12 0 0)
(4.75761e-13 -5.85386e-15 5.85386e-15)
(-6.82521e-12 0 0)
(-1.19853e-11 2.52732e-15 -2.52019e-15)
(-1.09538e-11 1.41561e-14 -1.41425e-14)
(-7.59136e-12 1.44194e-14 -1.4397e-14)
(1.44044e-12 3.42131e-15 -3.40905e-15)
(7.83653e-12 0 0)
(7.29429e-12 -5.6767e-15 5.6767e-15)
(3.55757e-11 -1.12041e-14 1.12041e-14)
(3.64736e-11 -1.11182e-14 1.11182e-14)
(1.32309e-11 -5.41983e-15 5.41983e-15)
(-6.15285e-12 -5.34154e-15 5.34154e-15)
(-1.88796e-11 -7.82404e-17 7.82404e-17)
(-1.58417e-11 0 0)
(3.59159e-12 0 0)
(1.83767e-11 -4.42125e-15 4.42125e-15)
(-2.45608e-11 -1.4974e-14 1.4974e-14)
(-6.12862e-11 -1.68436e-14 1.68436e-14)
(-3.90025e-11 -2.69651e-14 2.69651e-14)
(4.02458e-12 -3.04823e-14 3.04823e-14)
(-2.19476e-11 -2.33236e-14 2.33236e-14)
(3.01448e-11 -3.34824e-15 3.34824e-15)
(5.31081e-11 0 0)
(7.30198e-11 0 0)
(4.44744e-11 0 0)
(-3.65774e-11 0 0)
(2.3411e-11 3.87149e-16 -3.87149e-16)
(-2.38337e-13 5.27043e-15 -5.27043e-15)
(-1.36303e-11 1.32026e-14 -1.32026e-14)
(-2.66676e-11 1.6353e-15 -1.6353e-15)
(-9.33505e-12 -5.76066e-15 5.76066e-15)
(3.01836e-12 -2.39066e-14 2.39066e-14)
(1.50537e-11 -1.98693e-14 1.98693e-14)
(-1.54036e-12 -2.01772e-14 2.01772e-14)
(-2.5589e-11 -2.47547e-14 2.47547e-14)
(-1.47181e-11 -1.54081e-14 1.54081e-14)
(9.82755e-12 -4.60752e-15 4.60752e-15)
(7.64408e-12 0 0)
(-7.48542e-12 0 0)
(-1.32793e-11 0 0)
(-1.34239e-11 0 0)
(5.27247e-12 0 0)
(7.82735e-13 0 0)
(-1.18323e-11 -6.56656e-15 6.56656e-15)
(2.06878e-11 -1.69501e-14 1.69501e-14)
(2.30281e-11 -5.57481e-15 5.57481e-15)
(8.29285e-12 -3.68057e-15 3.68057e-15)
(-4.04549e-12 2.23685e-14 -2.23685e-14)
(4.99012e-12 2.54365e-14 -2.54365e-14)
(1.61158e-11 2.14825e-14 -2.14825e-14)
(1.18412e-11 4.41761e-15 -4.41761e-15)
(-1.20164e-11 1.52425e-15 -1.52425e-15)
(-1.6832e-11 3.80317e-15 -3.80317e-15)
(-4.75674e-12 -5.20802e-15 5.20802e-15)
(-2.18549e-12 -8.02135e-16 8.02135e-16)
(6.65927e-12 0 0)
(2.19166e-11 0 0)
(1.54881e-11 0 0)
(-3.14743e-11 0 0)
(-4.2989e-11 0 0)
(-2.56424e-11 -2.84914e-15 2.84914e-15)
(3.19995e-12 -1.09014e-14 1.09014e-14)
(5.30582e-12 -4.70362e-15 4.70362e-15)
(-5.43899e-12 -5.85376e-16 5.85376e-16)
(-6.81648e-12 0 0)
(3.08523e-12 0 0)
(3.27785e-12 3.88698e-15 -3.88698e-15)
(1.28425e-11 9.67726e-15 -9.67726e-15)
(1.41339e-11 2.3508e-14 -2.3508e-14)
(-7.30031e-12 2.16625e-14 -2.16625e-14)
(-6.22589e-12 2.4709e-14 -2.4709e-14)
(6.16637e-12 1.52012e-14 -1.52012e-14)
(3.65727e-12 1.15073e-14 -1.15073e-14)
(2.61447e-12 0 0)
(1.02776e-13 0 0)
(1.03028e-11 0 0)
(1.92739e-11 0 0)
(-2.38308e-11 -1.26763e-15 1.26763e-15)
(-2.58119e-11 -4.85619e-15 4.85619e-15)
(-1.87309e-11 -1.21975e-14 1.21975e-14)
(4.2427e-12 -2.2833e-15 2.2833e-15)
(1.29494e-11 0 0)
(8.30485e-12 0 0)
(7.09033e-12 0 0)
(5.72026e-12 2.08181e-15 -2.08181e-15)
(5.85012e-12 7.14629e-15 -7.14629e-15)
(1.34128e-11 1.7959e-14 -1.7959e-14)
(2.70133e-11 1.34381e-14 -1.34381e-14)
(-3.01963e-11 -1.66061e-14 1.66061e-14)
(-3.15647e-11 -8.36857e-15 8.36857e-15)
(-1.01207e-12 -4.63262e-15 4.63262e-15)
(1.62326e-11 -3.66679e-15 3.66679e-15)
(1.19236e-11 -9.38819e-15 9.38819e-15)
(-9.48114e-12 0 0)
(-2.10439e-12 0 0)
(-6.51718e-12 6.21908e-15 -6.21908e-15)
(-9.18763e-12 -8.78669e-15 8.78669e-15)
(-1.00783e-11 0 0)
(-1.18761e-11 1.22327e-15 -1.22327e-15)
(1.42005e-11 4.6574e-15 -4.6574e-15)
(1.75947e-11 -1.52791e-15 1.52791e-15)
(1.18088e-11 -2.23913e-16 2.23913e-16)
(4.07829e-12 0 0)
(1.19642e-12 -1.03035e-16 1.03035e-16)
(-1.01595e-11 -4.93454e-15 4.93454e-15)
(-1.36504e-11 -6.36983e-16 6.36983e-16)
(-8.76322e-12 -3.70978e-15 3.70978e-15)
(-1.35765e-11 0 0)
(1.70789e-11 5.0858e-15 -5.0858e-15)
(1.73504e-11 0 0)
(6.16342e-12 0 0)
(-5.24179e-12 -3.98361e-15 3.98361e-15)
(-9.67703e-12 -1.09312e-14 1.09312e-14)
(-1.10141e-11 -9.38097e-15 9.38097e-15)
(-4.32577e-12 -3.88066e-15 3.88066e-15)
(2.83438e-11 0 0)
(4.22778e-11 0 0)
(2.51567e-11 0 0)
(-1.65447e-11 7.16791e-15 -7.16791e-15)
(-8.93063e-12 0 0)
(-1.12748e-11 0 0)
(-1.71212e-11 -2.63557e-15 2.63557e-15)
(4.27928e-12 -9.04987e-15 9.04987e-15)
(2.85907e-11 -1.98655e-14 1.98655e-14)
(6.89654e-12 -2.61996e-14 2.61996e-14)
(-2.39036e-11 -2.81065e-14 2.81065e-14)
(-6.00344e-12 -2.56427e-14 2.56427e-14)
(1.07658e-11 -2.71895e-14 2.71895e-14)
(9.16788e-12 -2.16446e-14 2.16446e-14)
(-1.24155e-12 -1.1405e-14 1.1405e-14)
(-1.3096e-11 -2.25899e-15 2.25899e-15)
(-1.74878e-11 0 0)
(-2.18409e-12 2.09481e-15 -2.09481e-15)
(1.62539e-11 0 0)
(1.44423e-11 0 0)
(-8.12218e-12 0 0)
(-1.65112e-11 -1.7122e-15 1.7122e-15)
(-1.36245e-11 -6.45624e-15 6.45624e-15)
(-1.97733e-11 -7.12006e-15 7.12006e-15)
(-1.5087e-11 -1.10698e-15 1.10698e-15)
(1.1005e-11 0 0)
(2.43909e-11 0 0)
(2.42465e-11 0 0)
(-8.02569e-12 0 0)
(-2.29372e-11 -9.92158e-18 9.92158e-18)
(-1.54557e-11 -4.30622e-15 4.30622e-15)
(-1.12638e-12 0 0)
(4.1887e-13 0 0)
(1.06452e-11 4.73089e-15 -4.73089e-15)
(2.04113e-11 2.27762e-15 -2.27762e-15)
(2.34922e-11 4.52546e-15 -4.52546e-15)
(1.85647e-11 0 0)
(-1.31019e-11 -1.07426e-14 1.07426e-14)
(-6.70765e-12 -8.11165e-15 8.11165e-15)
(-7.05051e-12 -1.28784e-14 1.28784e-14)
(-2.11118e-11 -1.15674e-14 1.15674e-14)
(-1.75579e-11 -1.6723e-15 1.6723e-15)
(3.81538e-12 0 0)
(1.81695e-11 0 0)
(1.72326e-11 1.52814e-15 -1.52814e-15)
(-1.95649e-11 -3.66879e-15 3.66879e-15)
(-2.49461e-11 -1.11545e-14 1.11545e-14)
(-2.46482e-11 -1.18063e-14 1.18063e-14)
(-1.69734e-11 -6.84966e-15 6.84966e-15)
(9.91103e-12 -7.12905e-15 7.12905e-15)
(1.11694e-11 -4.63806e-16 4.63806e-16)
(1.81324e-11 0 0)
(1.75127e-11 -2.31396e-15 2.31396e-15)
(3.55301e-12 3.91746e-17 -3.91746e-17)
(3.64957e-12 -2.24962e-15 2.24962e-15)
(9.59391e-12 0 0)
(3.40227e-12 2.33293e-15 -2.33293e-15)
(-1.03732e-12 0 0)
(-7.83638e-12 0 0)
(-1.16552e-11 -2.72218e-15 2.72218e-15)
(-2.79055e-12 -7.67211e-15 7.67211e-15)
(2.17722e-12 -1.08606e-14 1.08606e-14)
(9.32136e-12 -1.52295e-14 1.52295e-14)
(1.00287e-11 -1.67371e-14 1.67371e-14)
(3.82069e-12 -1.42651e-14 1.42651e-14)
(9.77319e-12 -6.16958e-15 6.16958e-15)
(1.15428e-11 0 0)
(4.63276e-12 0 0)
(-1.17059e-11 3.78718e-15 -3.78718e-15)
(-1.6911e-11 1.33235e-15 -1.33235e-15)
(-1.78051e-11 2.62351e-15 -2.62351e-15)
(-2.84811e-12 1.68418e-16 -1.68418e-16)
(1.38743e-11 0 0)
(-2.93235e-11 -2.89796e-15 2.89796e-15)
(-3.52728e-11 0 0)
(-1.89902e-11 0 0)
(-2.33781e-13 9.8909e-16 -9.8909e-16)
(1.5932e-11 7.64941e-15 -7.64941e-15)
(2.42246e-11 8.41232e-15 -8.41232e-15)
(2.67876e-11 3.11456e-15 -3.11456e-15)
(2.59032e-11 1.55137e-16 -1.55137e-16)
(1.8118e-11 0 0)
(-1.17016e-12 2.91948e-15 -2.91948e-15)
(-7.22025e-12 0 0)
(-1.46943e-11 0 0)
(-3.41703e-11 0 0)
(-1.45207e-11 0 0)
(1.69164e-11 0 0)
(1.44423e-11 0 0)
(-5.39593e-12 0 0)
(-1.02496e-11 0 0)
(3.4209e-11 1.33713e-15 -1.33713e-15)
(4.46418e-11 8.43486e-15 -8.43486e-15)
(1.37775e-11 1.35288e-14 -1.35288e-14)
(-9.96534e-12 2.24667e-14 -2.24667e-14)
(8.6222e-13 2.22099e-14 -2.22099e-14)
(-1.41691e-11 1.13525e-14 -1.13525e-14)
(-1.79673e-11 1.84596e-15 -1.84596e-15)
(-1.37371e-11 -6.6472e-16 6.6472e-16)
(-1.31655e-11 0 0)
(-1.33443e-11 0 0)
(1.20331e-11 0 0)
(3.71017e-12 0 0)
(-2.10927e-11 0 0)
(-1.02288e-11 0 0)
(3.51645e-12 0 0)
(1.70856e-12 0 0)
(-6.43676e-12 -3.08176e-15 3.08176e-15)
(-1.0238e-11 4.00621e-15 -4.00621e-15)
(-1.29692e-11 0 0)
(-5.27277e-12 -1.30971e-15 1.30971e-15)
(-3.76575e-12 -5.05229e-15 5.05229e-15)
(9.84249e-12 -3.72589e-15 3.72589e-15)
(3.20762e-11 -5.51857e-15 5.51857e-15)
(1.07374e-11 -4.71953e-15 4.71953e-15)
(-1.18979e-11 -5.74212e-15 5.74212e-15)
(-6.2374e-12 -4.2804e-15 4.2804e-15)
(1.18545e-11 -3.22004e-15 3.22004e-15)
(-6.14138e-12 2.91947e-16 -2.91947e-16)
(-1.25619e-11 1.3425e-15 -1.3425e-15)
(2.43328e-12 2.38589e-15 -2.38589e-15)
(2.30007e-11 1.00192e-15 -1.00192e-15)
(8.96378e-12 2.03545e-15 -2.03545e-15)
(-1.7763e-11 6.64279e-16 -6.64279e-16)
(-9.53452e-12 1.5859e-15 -1.5859e-15)
(2.61454e-11 -1.44722e-15 1.44722e-15)
(4.40886e-11 -1.90232e-17 1.90232e-17)
(7.53629e-12 -1.16355e-15 1.16355e-15)
(-1.71244e-11 -4.94931e-15 4.94931e-15)
(-1.70015e-11 -2.0651e-14 2.0651e-14)
(-3.14791e-11 -1.75672e-14 1.75672e-14)
(-4.22667e-11 7.6012e-16 -7.6012e-16)
(-4.88897e-12 1.05537e-14 -1.05537e-14)
(6.80115e-12 1.273e-14 -1.273e-14)
(-1.63474e-12 8.03693e-15 -8.03693e-15)
(2.81551e-11 3.98169e-15 -3.98169e-15)
(3.11832e-11 1.34848e-15 -1.34848e-15)
(1.46691e-11 2.4346e-15 -2.4346e-15)
(-3.38566e-12 8.16055e-15 -8.16055e-15)
(3.38901e-12 2.46653e-15 -2.46653e-15)
(3.33952e-12 -2.22188e-15 2.22188e-15)
(-2.92713e-12 -7.99448e-15 7.99448e-15)
(-5.8445e-12 -3.79789e-15 3.79789e-15)
(-3.61565e-13 -1.68713e-15 1.68713e-15)
(7.5373e-12 -1.76906e-15 1.76906e-15)
(8.62373e-13 -4.02451e-15 4.02451e-15)
(5.63502e-12 -1.1769e-14 1.1769e-14)
(8.66631e-12 -2.62497e-14 2.62497e-14)
(-1.13617e-11 -3.02303e-14 3.02303e-14)
(-9.27808e-12 -3.10081e-14 3.10081e-14)
(-6.05869e-12 -2.09513e-14 2.09513e-14)
(-1.20933e-12 -1.23376e-14 1.23376e-14)
(2.30391e-12 -3.68237e-15 3.68237e-15)
(-5.78221e-12 -3.3904e-16 3.3904e-16)
(-6.90117e-12 0 0)
(1.32283e-12 0 0)
(1.69513e-11 0 0)
(7.72938e-12 0 0)
(-1.15649e-11 0 0)
(-4.39974e-12 0 0)
(1.38593e-11 1.54762e-15 -1.54762e-15)
(8.54526e-12 4.17084e-15 -4.17084e-15)
(-1.26696e-12 -4.28791e-15 4.28791e-15)
(-4.4247e-12 -1.05134e-14 1.05134e-14)
(4.17804e-12 -1.23422e-14 1.23422e-14)
(1.38857e-11 -1.26756e-14 1.26756e-14)
(7.02653e-12 -6.02493e-15 6.02493e-15)
(-2.27174e-12 1.22612e-15 -1.22612e-15)
(-2.16667e-11 6.89765e-15 -6.89765e-15)
(-2.97396e-11 1.37223e-15 -1.37223e-15)
(-1.35561e-11 0 0)
(1.74576e-11 0 0)
(2.01618e-11 0 0)
(9.93244e-12 -6.44651e-16 6.44651e-16)
(-1.2529e-11 -4.88913e-15 4.88913e-15)
(-1.76314e-11 -4.17352e-16 4.17352e-16)
(-3.19171e-12 -2.77313e-15 2.77313e-15)
(-1.91041e-12 -1.12086e-14 1.12086e-14)
(-9.25241e-12 -1.73025e-14 1.73025e-14)
(-7.42881e-12 -1.8821e-14 1.8821e-14)
(-4.66455e-12 -1.62845e-14 1.62845e-14)
(8.59678e-12 -1.02717e-14 1.02717e-14)
(4.16766e-12 -5.41637e-15 5.41637e-15)
(6.31329e-13 -9.00722e-16 9.00722e-16)
(1.0845e-11 -9.65449e-17 9.65449e-17)
(1.52915e-11 -5.34e-15 5.34e-15)
(3.119e-11 -7.60005e-15 7.60005e-15)
(2.77381e-11 -1.53805e-15 1.53805e-15)
(1.7437e-11 0 0)
)
;

boundaryField
{
    wedge0
    {
        type            wedge;
    }
    wedge1
    {
        type            wedge;
    }
    wedge2
    {
        type            wedge;
    }
    wedge3
    {
        type            wedge;
    }
    outlet
    {
        type            zeroGradient;
    }
    defaultFaces
    {
        type            empty;
    }
}


// ************************************************************************* //
