/*--------------------------------*- C++ -*----------------------------------*\
| =========                 |                                                 |
| \\      /  F ield         | OpenFOAM: The Open Source CFD Toolbox           |
|  \\    /   O peration     | Version:  2312                                  |
|   \\  /    A nd           | Website:  www.openfoam.com                      |
|    \\/     M anipulation  |                                                 |
\*---------------------------------------------------------------------------*/
FoamFile
{
    version     2.0;
    format      ascii;
    arch        "LSB;label=32;scalar=64";
    class       volScalarField;
    location    "0.046";
    object      p;
}
// * * * * * * * * * * * * * * * * * * * * * * * * * * * * * * * * * * * * * //

dimensions      [1 -1 -2 0 0 0 0];

internalField   nonuniform List<scalar> 
100
(
33799.8
33709
33431.4
33254.5
33019.2
32822.8
32609.5
32409.2
32206.8
32009.2
31813.7
31620.6
31430.9
31241.9
31058.4
30871.5
30696.6
30507.5
30346.5
30146.7
30009.9
29785.9
29688.2
29423.5
29379.9
29062.4
29078.5
28711.2
28772.2
28382.8
28448
28089
28096.6
27836.9
27714.5
27629.2
27302.6
27465.4
26866.2
27340.2
26419.2
27237.4
25990
27127.4
25619.8
26974
25348.7
26752.6
25196.4
26466.7
25151.2
26150.8
25175.2
25855.5
25223.7
25623.5
25266.1
25472.4
25293.7
25394.6
25313.5
25369.1
25335.2
25375.3
25364.1
25399.4
25400.3
25434.3
25443.2
25478.4
25495.7
25538.3
25574.1
25646.9
25744.8
25934.5
26251.9
26816.1
27690.8
28927.1
30394.1
31913
33240.3
34288.7
35012.2
35502.7
35796.8
35994
36102.8
36187.4
36231.5
36278.3
36302.1
36337.3
36355.8
36387.7
36405.5
36436.8
36455.5
36483.5
)
;

boundaryField
{
    sides
    {
        type            zeroGradient;
    }
    empty
    {
        type            empty;
    }
}


// ************************************************************************* //
