/*--------------------------------*- C++ -*----------------------------------*\
| =========                 |                                                 |
| \\      /  F ield         | OpenFOAM: The Open Source CFD Toolbox           |
|  \\    /   O peration     | Version:  2312                                  |
|   \\  /    A nd           | Website:  www.openfoam.com                      |
|    \\/     M anipulation  |                                                 |
\*---------------------------------------------------------------------------*/
FoamFile
{
    version     2.0;
    format      ascii;
    arch        "LSB;label=32;scalar=64";
    class       volScalarField;
    location    "0.046";
    object      thermo:e;
}
// * * * * * * * * * * * * * * * * * * * * * * * * * * * * * * * * * * * * * //

dimensions      [0 2 -2 0 0 0 0];

internalField   nonuniform List<scalar> 
100
(
166569
166834
166366
166380
166166
166141
166057
166030
165986
165942
165878
165787
165668
165502
165317
165060
164823
164458
164214
163707
163533
162822
162820
161825
162095
160760
161337
159697
160490
158719
159485
157899
158272
157273
156831
156851
155159
156623
153279
156545
151266
156502
149292
156301
147600
155723
146421
154640
145853
153103
145805
151345
146037
149676
146297
148335
146432
147410
146426
146848
146347
146538
146267
146382
146223
146315
146220
146306
146251
146337
146312
146406
146418
146549
146648
146926
147312
148089
149252
151020
153121
155403
157374
158997
160075
160855
161278
161607
161747
161900
161942
162034
162046
162119
162124
162191
162196
162261
162268
162338
)
;

boundaryField
{
    sides
    {
        type            zeroGradient;
    }
    empty
    {
        type            empty;
    }
}


// ************************************************************************* //
