/*--------------------------------*- C++ -*----------------------------------*\
| =========                 |                                                 |
| \\      /  F ield         | OpenFOAM: The Open Source CFD Toolbox           |
|  \\    /   O peration     | Version:  2312                                  |
|   \\  /    A nd           | Website:  www.openfoam.com                      |
|    \\/     M anipulation  |                                                 |
\*---------------------------------------------------------------------------*/
FoamFile
{
    version     2.0;
    format      ascii;
    arch        "LSB;label=32;scalar=64";
    class       volVectorField;
    location    "0.046";
    object      U;
}
// * * * * * * * * * * * * * * * * * * * * * * * * * * * * * * * * * * * * * //

dimensions      [0 1 -1 0 0 0 0];

internalField   nonuniform List<vector> 
100
(
(159.599 0 0)
(161.223 0 0)
(163.211 0 0)
(165.074 0 0)
(167.043 0 0)
(168.964 0 0)
(170.937 0 0)
(172.904 0 0)
(174.897 0 0)
(176.898 0 0)
(178.915 0 0)
(180.941 0 0)
(182.978 0 0)
(185.018 0 0)
(187.07 0 0)
(189.115 0 0)
(191.179 0 0)
(193.216 0 0)
(195.295 0 0)
(197.31 0 0)
(199.41 0 0)
(201.391 0 0)
(203.514 0 0)
(205.457 0 0)
(207.593 0 0)
(209.511 0 0)
(211.626 0 0)
(213.555 0 0)
(215.599 0 0)
(217.584 0 0)
(219.501 0 0)
(221.578 0 0)
(223.332 0 0)
(225.514 0 0)
(227.086 0 0)
(229.371 0 0)
(230.753 0 0)
(233.123 0 0)
(234.324 0 0)
(236.733 0 0)
(237.797 0 0)
(240.145 0 0)
(241.177 0 0)
(243.302 0 0)
(244.445 0 0)
(246.174 0 0)
(247.546 0 0)
(248.771 0 0)
(250.386 0 0)
(251.126 0 0)
(252.868 0 0)
(253.262 0 0)
(254.933 0 0)
(255.17 0 0)
(256.583 0 0)
(256.809 0 0)
(257.875 0 0)
(258.145 0 0)
(258.886 0 0)
(259.182 0 0)
(259.682 0 0)
(259.965 0 0)
(260.316 0 0)
(260.563 0 0)
(260.829 0 0)
(261.039 0 0)
(261.254 0 0)
(261.432 0 0)
(261.607 0 0)
(261.747 0 0)
(261.861 0 0)
(261.911 0 0)
(261.859 0 0)
(261.598 0 0)
(260.948 0 0)
(259.56 0 0)
(256.897 0 0)
(252.298 0 0)
(245.326 0 0)
(236.257 0 0)
(226.228 0 0)
(216.762 0 0)
(209.004 0 0)
(203.37 0 0)
(199.664 0 0)
(197.424 0 0)
(196.18 0 0)
(195.563 0 0)
(195.327 0 0)
(195.313 0 0)
(195.428 0 0)
(195.614 0 0)
(195.843 0 0)
(196.093 0 0)
(196.357 0 0)
(196.627 0 0)
(196.902 0 0)
(197.178 0 0)
(197.458 0 0)
(197.681 0 0)
)
;

boundaryField
{
    sides
    {
        type            mywaveTransmissive;
        gamma           1.4;
        value           nonuniform List<vector> 2((197.782 0 0) (159.15 0 0));
    }
    empty
    {
        type            empty;
    }
}


// ************************************************************************* //
