/*--------------------------------*- C++ -*----------------------------------*\
| =========                 |                                                 |
| \\      /  F ield         | OpenFOAM: The Open Source CFD Toolbox           |
|  \\    /   O peration     | Version:  2312                                  |
|   \\  /    A nd           | Website:  www.openfoam.com                      |
|    \\/     M anipulation  |                                                 |
\*---------------------------------------------------------------------------*/
FoamFile
{
    version     2.0;
    format      ascii;
    arch        "LSB;label=32;scalar=64";
    class       volScalarField;
    location    "8e-05";
    object      p;
}
// * * * * * * * * * * * * * * * * * * * * * * * * * * * * * * * * * * * * * //

dimensions      [1 -1 -2 0 0 0 0];

internalField   nonuniform List<scalar> 
100
(
1263.19
1263.19
1263.19
1263.19
1263.19
1263.19
1263.19
1263.19
1263.19
1263.19
1263.19
1263.19
1263.19
1263.19
1263.19
1263.19
1263.19
1263.19
1263.19
1263.19
1263.19
1263.19
1263.19
1263.19
1263.19
1263.19
1263.19
1263.19
1263.19
1263.19
1263.19
1263.19
1263.19
1263.19
1263.19
1263.19
1263.19
1263.19
1263.19
1263.19
1263.19
1263.19
1263.19
1263.2
1295.21
4272.04
17777.5
57141.4
146754
203434
154804
143600
142054
141904
141895
141894
141894
141894
141894
141894
141894
141894
141894
141894
141894
141894
141894
141894
141894
141894
141894
141894
141894
141894
141894
141894
141894
141894
141894
141894
141894
141894
141894
141894
141894
141894
141894
141894
141894
141894
141894
141894
141894
141894
141894
141894
141894
141894
141894
141894
)
;

boundaryField
{
    sides
    {
        type            zeroGradient;
    }
    empty
    {
        type            empty;
    }
}


// ************************************************************************* //
