/*--------------------------------*- C++ -*----------------------------------*\
| =========                 |                                                 |
| \\      /  F ield         | OpenFOAM: The Open Source CFD Toolbox           |
|  \\    /   O peration     | Version:  2312                                  |
|   \\  /    A nd           | Website:  www.openfoam.com                      |
|    \\/     M anipulation  |                                                 |
\*---------------------------------------------------------------------------*/
FoamFile
{
    version     2.0;
    format      ascii;
    arch        "LSB;label=32;scalar=64";
    class       volScalarField;
    location    "8e-05";
    object      p;
}
// * * * * * * * * * * * * * * * * * * * * * * * * * * * * * * * * * * * * * //

dimensions      [1 -1 -2 0 0 0 0];

internalField   nonuniform List<scalar> 
100
(
4.63368e+07
4.63368e+07
4.63368e+07
4.63368e+07
4.63368e+07
4.63368e+07
4.63368e+07
4.63368e+07
4.63368e+07
4.63368e+07
4.63368e+07
4.63368e+07
4.63368e+07
4.63368e+07
4.63368e+07
4.63368e+07
4.6337e+07
4.63385e+07
4.63547e+07
4.65203e+07
4.81974e+07
6.2946e+07
1.35465e+08
2.95047e+08
4.76276e+08
6.00897e+08
6.56372e+08
6.71343e+08
6.72086e+08
6.69889e+08
6.67731e+08
6.65997e+08
6.64593e+08
6.6344e+08
6.6251e+08
6.61811e+08
6.61303e+08
6.60845e+08
6.60311e+08
6.59775e+08
6.59488e+08
6.59621e+08
6.60078e+08
6.60465e+08
6.60377e+08
6.65475e+08
6.87552e+08
6.63652e+08
6.61364e+08
6.6088e+08
6.60551e+08
6.60497e+08
6.6077e+08
6.61292e+08
6.61935e+08
6.62581e+08
6.63158e+08
6.63655e+08
6.64106e+08
6.64562e+08
6.65064e+08
6.65628e+08
6.66251e+08
6.66916e+08
6.67611e+08
6.68327e+08
6.69069e+08
6.69845e+08
6.70667e+08
6.71541e+08
6.72472e+08
6.7346e+08
6.74503e+08
6.75599e+08
6.76746e+08
6.77944e+08
6.79195e+08
6.80502e+08
6.81869e+08
6.83304e+08
6.84815e+08
6.86411e+08
6.88105e+08
6.89911e+08
6.91846e+08
6.93927e+08
6.96172e+08
6.98597e+08
7.01218e+08
7.04051e+08
7.07107e+08
7.10398e+08
7.13934e+08
7.17724e+08
7.21774e+08
7.26092e+08
7.3068e+08
7.35532e+08
7.40569e+08
7.45208e+08
)
;

boundaryField
{
    sides
    {
        type            zeroGradient;
    }
    empty
    {
        type            empty;
    }
}


// ************************************************************************* //
