/*--------------------------------*- C++ -*----------------------------------*\
| =========                 |                                                 |
| \\      /  F ield         | OpenFOAM: The Open Source CFD Toolbox           |
|  \\    /   O peration     | Version:  2312                                  |
|   \\  /    A nd           | Website:  www.openfoam.com                      |
|    \\/     M anipulation  |                                                 |
\*---------------------------------------------------------------------------*/
FoamFile
{
    version     2.0;
    format      ascii;
    arch        "LSB;label=32;scalar=64";
    class       volScalarField;
    location    "8e-05";
    object      rho;
}
// * * * * * * * * * * * * * * * * * * * * * * * * * * * * * * * * * * * * * //

dimensions      [1 -3 0 0 0 0 0];

internalField   nonuniform List<scalar> 
100
(
1.16102
1.16102
1.16102
1.16102
1.16102
1.16102
1.16102
1.16102
1.16102
1.16102
1.16102
1.16102
1.16102
1.16102
1.16102
1.16102
1.16102
1.16105
1.16128
1.16356
1.18306
1.30277
1.68668
2.30062
2.8559
3.133
3.12717
2.94164
2.6693
2.35726
2.03225
1.71522
1.42274
1.16518
0.946523
0.765811
0.619171
0.501529
0.407761
0.333274
0.274169
0.227211
0.189769
0.159751
0.135549
0.116585
0.105307
0.101647
0.101296
0.101222
0.101172
0.101163
0.101205
0.101285
0.101384
0.101483
0.101571
0.101647
0.101716
0.101786
0.101863
0.101949
0.102045
0.102147
0.102253
0.102363
0.102476
0.102595
0.102721
0.102855
0.102997
0.103149
0.103309
0.103476
0.103652
0.103836
0.104027
0.104227
0.104437
0.104657
0.104888
0.105132
0.105392
0.105668
0.105965
0.106284
0.106627
0.106999
0.1074
0.107834
0.108302
0.108806
0.109348
0.109928
0.110549
0.11121
0.111913
0.112656
0.113427
0.114138
)
;

boundaryField
{
    sides
    {
        type            zeroGradient;
    }
    empty
    {
        type            empty;
    }
}


// ************************************************************************* //
