/*--------------------------------*- C++ -*----------------------------------*\
| =========                 |                                                 |
| \\      /  F ield         | OpenFOAM: The Open Source CFD Toolbox           |
|  \\    /   O peration     | Version:  2312                                  |
|   \\  /    A nd           | Website:  www.openfoam.com                      |
|    \\/     M anipulation  |                                                 |
\*---------------------------------------------------------------------------*/
FoamFile
{
    version     2.0;
    format      ascii;
    arch        "LSB;label=32;scalar=64";
    class       volScalarField;
    location    "8e-05";
    object      thermo:e;
}
// * * * * * * * * * * * * * * * * * * * * * * * * * * * * * * * * * * * * * //

dimensions      [0 2 -2 0 0 0 0];

internalField   nonuniform List<scalar> 
100
(
5.95678e+07
5.95678e+07
5.95678e+07
5.95678e+07
5.95678e+07
5.95678e+07
5.95678e+07
5.95678e+07
5.95678e+07
5.95678e+07
5.95678e+07
5.95678e+07
5.95678e+07
5.95678e+07
5.95679e+07
5.95679e+07
5.95679e+07
5.95688e+07
5.95774e+07
5.96733e+07
6.08054e+07
7.21148e+07
1.19873e+08
1.91413e+08
2.48909e+08
2.86262e+08
3.13274e+08
3.40628e+08
3.75797e+08
4.24151e+08
4.90398e+08
5.79531e+08
6.972e+08
8.49835e+08
1.04469e+09
1.28985e+09
1.5941e+09
1.96666e+09
2.41695e+09
2.95474e+09
3.59015e+09
4.33302e+09
5.19154e+09
6.17066e+09
7.27143e+09
8.51948e+09
1.01276e+10
1.22631e+10
1.46641e+10
1.70845e+10
1.94765e+10
2.18182e+10
2.40907e+10
2.62778e+10
2.83651e+10
3.034e+10
3.21927e+10
3.39161e+10
3.55061e+10
3.69615e+10
3.82835e+10
3.94753e+10
4.05418e+10
4.1489e+10
4.23242e+10
4.30552e+10
4.36908e+10
4.42397e+10
4.47108e+10
4.51127e+10
4.54537e+10
4.57416e+10
4.59833e+10
4.61856e+10
4.63541e+10
4.64941e+10
4.66104e+10
4.67069e+10
4.67871e+10
4.68542e+10
4.69107e+10
4.69588e+10
4.70004e+10
4.70371e+10
4.70702e+10
4.7101e+10
4.71302e+10
4.71589e+10
4.71874e+10
4.72165e+10
4.72465e+10
4.72777e+10
4.73105e+10
4.7345e+10
4.73814e+10
4.74198e+10
4.74604e+10
4.75029e+10
4.75469e+10
4.75873e+10
)
;

boundaryField
{
    sides
    {
        type            zeroGradient;
    }
    empty
    {
        type            empty;
    }
}


// ************************************************************************* //
