/*--------------------------------*- C++ -*----------------------------------*\
| =========                 |                                                 |
| \\      /  F ield         | OpenFOAM: The Open Source CFD Toolbox           |
|  \\    /   O peration     | Version:  2312                                  |
|   \\  /    A nd           | Website:  www.openfoam.com                      |
|    \\/     M anipulation  |                                                 |
\*---------------------------------------------------------------------------*/
FoamFile
{
    version     2.0;
    format      ascii;
    arch        "LSB;label=32;scalar=64";
    class       volVectorField;
    location    "8e-05";
    object      U;
}
// * * * * * * * * * * * * * * * * * * * * * * * * * * * * * * * * * * * * * //

dimensions      [0 1 -1 0 0 0 0];

internalField   nonuniform List<vector> 
100
(
(2.57014e-11 0 0)
(1.82589e-11 0 0)
(5.64625e-12 0 0)
(-5.53317e-12 0 0)
(-6.4193e-12 0 0)
(6.12535e-12 0 0)
(1.08804e-11 0 0)
(-5.0152e-13 0 0)
(-1.02053e-10 0 0)
(-1.12316e-09 0 0)
(-1.22218e-08 0 0)
(-1.32051e-07 0 0)
(-1.41589e-06 0 0)
(-1.50742e-05 0 0)
(-0.000159426 0 0)
(-0.0016757 0 0)
(-0.0175117 0 0)
(-0.182013 0 0)
(-1.8815 0 0)
(-19.2641 0 0)
(-187.033 0 0)
(-1368.34 0 0)
(-5224.85 0 0)
(-10614.8 0 0)
(-14998.5 0 0)
(-17635.6 0 0)
(-18867.8 0 0)
(-19284.4 0 0)
(-19355.8 0 0)
(-19333 0 0)
(-19298 0 0)
(-19266.3 0 0)
(-19237.2 0 0)
(-19209.1 0 0)
(-19181.7 0 0)
(-19156.1 0 0)
(-19132.7 0 0)
(-19108.1 0 0)
(-19076.5 0 0)
(-19039.3 0 0)
(-19009.3 0 0)
(-19000.5 0 0)
(-19014.1 0 0)
(-19027.4 0 0)
(-18980.5 0 0)
(-18374.2 0 0)
(-14890.3 0 0)
(-11432.7 0 0)
(-10947.5 0 0)
(-10907.6 0 0)
(-10938 0 0)
(-10947 0 0)
(-10917.4 0 0)
(-10857.1 0 0)
(-10781.5 0 0)
(-10705.4 0 0)
(-10637.7 0 0)
(-10579.9 0 0)
(-10528.1 0 0)
(-10476.2 0 0)
(-10419.3 0 0)
(-10355.5 0 0)
(-10285.6 0 0)
(-10211.7 0 0)
(-10135.9 0 0)
(-10059.3 0 0)
(-9981.96 0 0)
(-9903.01 0 0)
(-9821.38 0 0)
(-9736.07 0 0)
(-9646.38 0 0)
(-9551.83 0 0)
(-9451.97 0 0)
(-9346.16 0 0)
(-9233.49 0 0)
(-9112.74 0 0)
(-8982.49 0 0)
(-8841.26 0 0)
(-8687.67 0 0)
(-8520.46 0 0)
(-8338.59 0 0)
(-8141.17 0 0)
(-7927.45 0 0)
(-7696.71 0 0)
(-7448.28 0 0)
(-7181.47 0 0)
(-6895.57 0 0)
(-6589.86 0 0)
(-6263.64 0 0)
(-5916.2 0 0)
(-5546.83 0 0)
(-5154.89 0 0)
(-4739.73 0 0)
(-4300.78 0 0)
(-3837.53 0 0)
(-3349.57 0 0)
(-2836.8 0 0)
(-2300.25 0 0)
(-1748.68 0 0)
(-1245.06 0 0)
)
;

boundaryField
{
    sides
    {
        type            zeroGradient;
    }
    empty
    {
        type            empty;
    }
}


// ************************************************************************* //
