/*--------------------------------*- C++ -*----------------------------------*\
| =========                 |                                                 |
| \\      /  F ield         | OpenFOAM: The Open Source CFD Toolbox           |
|  \\    /   O peration     | Version:  2312                                  |
|   \\  /    A nd           | Website:  www.openfoam.com                      |
|    \\/     M anipulation  |                                                 |
\*---------------------------------------------------------------------------*/
FoamFile
{
    version     2.0;
    format      ascii;
    arch        "LSB;label=32;scalar=64";
    class       volVectorField;
    location    "8e-05";
    object      U;
}
// * * * * * * * * * * * * * * * * * * * * * * * * * * * * * * * * * * * * * //

dimensions      [0 1 -1 0 0 0 0];

internalField   nonuniform List<vector> 
100
(
(2.40089e-16 0 0)
(3.54858e-16 0 0)
(1.83465e-16 0 0)
(-2.7449e-16 0 0)
(-5.03922e-16 0 0)
(2.40089e-16 0 0)
(3.54858e-16 0 0)
(2.42356e-16 0 0)
(-4.13749e-16 0 0)
(-1.47947e-16 0 0)
(5.69649e-16 0 0)
(-9.05849e-17 0 0)
(0 0 0)
(2.86815e-16 0 0)
(-1.9623e-16 0 0)
(-9.77279e-17 0 0)
(7.14308e-18 0 0)
(0 0 0)
(2.86815e-16 0 0)
(-1.9623e-16 0 0)
(0 0 0)
(-9.05849e-17 0 0)
(0 0 0)
(2.86815e-16 0 0)
(-2.93958e-16 0 0)
(-7.70081e-17 0 0)
(-3.47807e-16 0 0)
(2.47161e-16 0 0)
(4.71613e-16 0 0)
(5.30473e-17 0 0)
(-1.45135e-16 0 0)
(0 0 0)
(0 0 0)
(4.48923e-17 0 0)
(1.43316e-16 0 0)
(-1.88208e-16 0 0)
(0 0 0)
(0 0 0)
(4.48923e-17 0 0)
(-1.35608e-16 0 0)
(-8.23583e-14 0 0)
(-1.98489e-10 0 0)
(-4.00933e-07 0 0)
(-0.000851041 0 0)
(-0.23291 0 0)
(-2.26918 0 0)
(-10.1389 0 0)
(-31.9916 0 0)
(-57.8922 0 0)
(-17.5157 0 0)
(103.853 0 0)
(33.0297 0 0)
(2.99282 0 0)
(0.182105 0 0)
(0.00813761 0 0)
(0.000287232 0 0)
(8.14658e-06 0 0)
(1.8943e-07 0 0)
(3.65399e-09 0 0)
(5.89092e-11 0 0)
(8.74892e-13 0 0)
(3.38354e-13 0 0)
(0 0 0)
(0 0 0)
(-1.92083e-13 0 0)
(-2.47508e-13 0 0)
(4.3959e-13 0 0)
(0 0 0)
(0 0 0)
(-1.76144e-13 0 0)
(-3.88489e-13 0 0)
(5.3178e-13 0 0)
(3.19311e-13 0 0)
(5.02509e-14 0 0)
(-2.08991e-13 0 0)
(-6.92351e-13 0 0)
(3.47663e-13 0 0)
(0 0 0)
(5.17776e-13 0 0)
(-1.73088e-13 0 0)
(-6.79817e-13 0 0)
(4.37434e-13 0 0)
(-1.02305e-13 0 0)
(5.17776e-13 0 0)
(-1.73088e-13 0 0)
(-6.79817e-13 0 0)
(4.37434e-13 0 0)
(-8.99935e-14 0 0)
(5.05465e-13 0 0)
(4.73209e-13 0 0)
(-7.51243e-13 0 0)
(-6.26436e-13 0 0)
(6.51291e-13 0 0)
(7.02865e-13 0 0)
(-8.41088e-14 0 0)
(-7.58428e-13 0 0)
(-5.2538e-13 0 0)
(6.65052e-13 0 0)
(7.02865e-13 0 0)
(-8.41088e-14 0 0)
)
;

boundaryField
{
    sides
    {
        type            zeroGradient;
    }
    empty
    {
        type            empty;
    }
}


// ************************************************************************* //
