/*--------------------------------*- C++ -*----------------------------------*\
| =========                 |                                                 |
| \\      /  F ield         | OpenFOAM: The Open Source CFD Toolbox           |
|  \\    /   O peration     | Version:  2312                                  |
|   \\  /    A nd           | Website:  www.openfoam.com                      |
|    \\/     M anipulation  |                                                 |
\*---------------------------------------------------------------------------*/
FoamFile
{
    version     2.0;
    format      ascii;
    arch        "LSB;label=32;scalar=64";
    class       volScalarField;
    location    "0.00014";
    object      p;
}
// * * * * * * * * * * * * * * * * * * * * * * * * * * * * * * * * * * * * * //

dimensions      [1 -1 -2 0 0 0 0];

internalField   nonuniform List<scalar> 
500
(
254754
254810
254845
254868
254886
254901
254913
254923
254933
254941
254949
254956
254963
254969
254975
254981
254987
254992
254997
255003
255008
255013
255018
255022
255027
255032
255037
255041
255046
255051
255056
255060
255065
255070
255075
255080
255085
255090
255095
255100
255105
255110
255116
255121
255126
255132
255138
255143
255149
255155
255161
255168
255174
255180
255187
255194
255201
255208
255215
255222
255229
255237
255245
255253
255261
255269
255278
255287
255296
255305
255314
255324
255333
255344
255354
255364
255375
255386
255398
255410
255422
255434
255447
255460
255473
255487
255501
255515
255530
255545
255561
255577
255594
255611
255628
255646
255665
255684
255704
255724
255745
255766
255788
255811
255834
255858
255883
255909
255935
255963
255991
256020
256049
256080
256112
256145
256178
256213
256249
256287
256325
256365
256406
256448
256492
256537
256583
256632
256682
256733
256787
256842
256899
256958
257019
257082
257147
257215
257285
257358
257433
257511
257591
257675
257761
257851
257943
258040
258139
258243
258350
258461
258576
258695
258819
258947
259081
259219
259362
259511
259665
259825
259992
260164
260343
260529
260722
260923
261131
261347
261571
261805
262047
262298
262559
262830
263112
263405
263709
264025
264353
264694
265049
265417
265800
266197
266611
267040
267486
267950
268432
268933
269454
269995
270558
271142
271750
272381
273038
273720
274429
275166
275932
276728
277556
278416
279310
280239
281205
282209
283252
284337
285464
286636
287853
289119
290434
291801
293222
294699
296233
297828
299486
301209
303000
304861
306795
308805
310895
313066
315323
317668
320105
322638
325271
328007
330850
333806
336877
340068
343385
346832
350414
354136
358005
362024
366201
370541
375051
379737
384605
389664
394918
400377
406048
411938
418055
424409
431006
437857
444970
452354
460018
467973
476226
484789
493669
502878
512422
522305
532527
543103
554033
565312
576922
588831
600979
613260
625495
637381
648419
657781
664113
665228
657695
636399
594449
524554
424470
306273
199707
133723
108136
101631
100306
100055
100008
99999.5
99997.9
99997.6
99997.6
99997.6
99997.6
99997.6
99997.6
99997.6
99997.6
99997.6
99997.6
99997.6
99997.6
99997.6
99997.6
99997.6
99997.6
99997.6
99997.6
99997.6
99997.6
99997.6
99997.6
99997.6
99997.6
99997.6
99997.6
99997.6
99997.6
99997.6
99997.6
99997.6
99997.6
99997.6
99997.6
99997.6
99997.6
99997.6
99997.6
99997.6
99997.6
99997.6
99997.6
99997.6
99997.6
99997.6
99997.6
99997.6
99997.6
99997.6
99997.6
99997.6
99997.6
99997.6
99997.6
99997.6
99997.6
99997.6
99997.6
99997.6
99997.6
99997.6
99997.6
99997.6
99997.6
99997.6
99997.6
99997.6
99997.6
99997.6
99997.6
99997.6
99997.6
99997.6
99997.6
99997.6
99997.6
99997.6
99997.6
99997.6
99997.6
99997.6
99997.6
99997.6
99997.6
99997.6
99997.6
99997.6
99997.6
99997.6
99997.6
99997.6
99997.6
99997.6
99997.6
99997.6
99997.6
99997.6
99997.6
99997.6
99997.6
99997.6
99997.6
99997.6
99997.6
99997.6
99997.6
99997.6
99997.6
99997.6
99997.6
99997.6
99997.6
99997.6
99997.6
99997.6
99997.6
99997.6
99997.6
99997.6
99997.6
99997.6
99997.6
99997.6
99997.6
99997.6
99997.6
99997.6
99997.6
99997.6
99997.6
99997.6
99997.6
99997.6
99997.6
99997.6
99997.6
99997.6
99997.6
99997.6
99997.6
99997.6
99997.6
99997.6
99997.6
99997.6
99997.6
99997.6
99997.6
99997.6
99997.6
99997.6
99997.6
99997.6
99997.6
99997.6
99997.6
99997.6
99997.6
99997.6
99997.6
99997.6
99997.6
99997.6
99997.6
99997.6
99997.6
99997.6
99997.6
99997.6
99997.6
99997.6
99997.6
99997.6
99997.6
99997.6
99997.6
99997.6
99997.6
99997.6
99997.6
99997.6
99997.6
99997.6
99997.6
99997.6
99997.6
99997.6
99997.6
99997.6
99997.6
99997.6
99997.6
99997.6
99997.6
99997.6
99997.6
99997.6
99997.6
99997.6
99997.6
99997.6
)
;

boundaryField
{
    wedge0
    {
        type            wedge;
    }
    wedge1
    {
        type            wedge;
    }
    wedge2
    {
        type            wedge;
    }
    wedge3
    {
        type            wedge;
    }
    outlet
    {
        type            zeroGradient;
    }
    defaultFaces
    {
        type            empty;
    }
}


// ************************************************************************* //
