/*--------------------------------*- C++ -*----------------------------------*\
| =========                 |                                                 |
| \\      /  F ield         | OpenFOAM: The Open Source CFD Toolbox           |
|  \\    /   O peration     | Version:  2312                                  |
|   \\  /    A nd           | Website:  www.openfoam.com                      |
|    \\/     M anipulation  |                                                 |
\*---------------------------------------------------------------------------*/
FoamFile
{
    version     2.0;
    format      ascii;
    arch        "LSB;label=32;scalar=64";
    class       volScalarField;
    location    "0.00014";
    object      rho;
}
// * * * * * * * * * * * * * * * * * * * * * * * * * * * * * * * * * * * * * //

dimensions      [1 -3 0 0 0 0 0];

internalField   nonuniform List<scalar> 
500
(
0.00482196
0.00482385
0.00482656
0.00483025
0.00483499
0.00484081
0.00484773
0.00485577
0.00486494
0.00487524
0.00488669
0.00489929
0.00491305
0.004928
0.00494412
0.00496145
0.00497998
0.00499974
0.00502073
0.00504297
0.00506647
0.00509126
0.00511734
0.00514474
0.00517347
0.00520356
0.00523502
0.00526788
0.00530216
0.00533788
0.00537506
0.00541375
0.00545395
0.0054957
0.00553903
0.00558398
0.00563056
0.00567882
0.00572878
0.0057805
0.00583399
0.00588931
0.00594649
0.00600558
0.00606661
0.00612964
0.00619471
0.00626187
0.00633117
0.00640266
0.00647641
0.00655245
0.00663086
0.00671169
0.00679501
0.00688089
0.00696938
0.00706057
0.00715451
0.0072513
0.00735101
0.00745371
0.0075595
0.00766845
0.00778067
0.00789624
0.00801526
0.00813783
0.00826406
0.00839405
0.00852792
0.00866578
0.00880775
0.00895396
0.00910453
0.0092596
0.00941931
0.0095838
0.00975322
0.00992773
0.0101075
0.0102926
0.0104834
0.0106799
0.0108824
0.011091
0.0113059
0.0115274
0.0117556
0.0119908
0.0122333
0.0124831
0.0127407
0.0130062
0.01328
0.0135622
0.0138532
0.0141533
0.0144628
0.014782
0.0151113
0.0154509
0.0158012
0.0161627
0.0165356
0.0169205
0.0173176
0.0177275
0.0181506
0.0185873
0.0190381
0.0195035
0.0199841
0.0204803
0.0209927
0.021522
0.0220686
0.0226332
0.0232165
0.0238192
0.0244418
0.0250851
0.0257499
0.026437
0.0271471
0.0278811
0.0286398
0.0294241
0.0302349
0.0310733
0.0319401
0.0328365
0.0337634
0.0347221
0.0357136
0.0367391
0.0377998
0.0388971
0.0400323
0.0412066
0.0424216
0.0436786
0.0449793
0.0463251
0.0477177
0.0491588
0.0506501
0.0521934
0.0537906
0.0554436
0.0571543
0.0589248
0.0607573
0.062654
0.064617
0.0666488
0.0687517
0.0709283
0.073181
0.0755127
0.077926
0.0804237
0.0830088
0.0856842
0.0884531
0.0913186
0.0942841
0.0973529
0.100529
0.103815
0.107215
0.110733
0.114373
0.118138
0.122034
0.126064
0.130233
0.134545
0.139005
0.143617
0.148387
0.153319
0.158419
0.163693
0.169144
0.17478
0.180605
0.186626
0.192849
0.199279
0.205924
0.21279
0.219884
0.227212
0.234781
0.242599
0.250674
0.259012
0.267622
0.276512
0.28569
0.295164
0.304943
0.315037
0.325453
0.336202
0.347293
0.358736
0.370542
0.38272
0.395281
0.408237
0.421598
0.435376
0.449583
0.464232
0.479334
0.494903
0.510952
0.527495
0.544546
0.562118
0.580228
0.59889
0.61812
0.637934
0.658349
0.679382
0.701051
0.723373
0.746367
0.770053
0.79445
0.819579
0.845459
0.872114
0.899565
0.927834
0.956946
0.986923
1.01779
1.04957
1.0823
1.11599
1.15068
1.18639
1.22315
1.261
1.29995
1.34004
1.3813
1.42377
1.46747
1.51243
1.55869
1.60628
1.65524
1.70559
1.75737
1.81061
1.86535
1.92161
1.97944
2.03885
2.09989
2.16258
2.22695
2.29302
2.36082
2.43027
2.50128
2.57398
2.6484
2.7245
2.80221
2.8814
2.9618
3.04301
3.12432
3.20455
3.28178
3.35283
3.41248
3.45228
3.45887
3.41205
3.28382
3.04185
2.66642
2.18822
1.71276
1.37518
1.21994
1.17382
1.16351
1.16147
1.16109
1.16102
1.161
1.161
1.161
1.161
1.161
1.161
1.161
1.161
1.161
1.161
1.161
1.161
1.161
1.161
1.161
1.161
1.161
1.161
1.161
1.161
1.161
1.161
1.161
1.161
1.161
1.161
1.161
1.161
1.161
1.161
1.161
1.161
1.161
1.161
1.161
1.161
1.161
1.161
1.161
1.161
1.161
1.161
1.161
1.161
1.161
1.161
1.161
1.161
1.161
1.161
1.161
1.161
1.161
1.161
1.161
1.161
1.161
1.161
1.161
1.161
1.161
1.161
1.161
1.161
1.161
1.161
1.161
1.161
1.161
1.161
1.161
1.161
1.161
1.161
1.161
1.161
1.161
1.161
1.161
1.161
1.161
1.161
1.161
1.161
1.161
1.161
1.161
1.161
1.161
1.161
1.161
1.161
1.161
1.161
1.161
1.161
1.161
1.161
1.161
1.161
1.161
1.161
1.161
1.161
1.161
1.161
1.161
1.161
1.161
1.161
1.161
1.161
1.161
1.161
1.161
1.161
1.161
1.161
1.161
1.161
1.161
1.161
1.161
1.161
1.161
1.161
1.161
1.161
1.161
1.161
1.161
1.161
1.161
1.161
1.161
1.161
1.161
1.161
1.161
1.161
1.161
1.161
1.161
1.161
1.161
1.161
1.161
1.161
1.161
1.161
1.161
1.161
1.161
1.161
1.161
1.161
1.161
1.161
1.161
1.161
1.161
1.161
1.161
1.161
1.161
1.161
1.161
1.161
1.161
1.161
1.161
1.161
1.161
1.161
1.161
1.161
1.161
1.161
1.161
1.161
1.161
1.161
1.161
1.161
1.161
1.161
1.161
1.161
1.161
1.161
1.161
1.161
1.161
1.161
1.161
1.161
1.161
1.161
1.161
1.161
1.161
1.161
)
;

boundaryField
{
    wedge0
    {
        type            wedge;
    }
    wedge1
    {
        type            wedge;
    }
    wedge2
    {
        type            wedge;
    }
    wedge3
    {
        type            wedge;
    }
    outlet
    {
        type            zeroGradient;
    }
    defaultFaces
    {
        type            empty;
    }
}


// ************************************************************************* //
