/*--------------------------------*- C++ -*----------------------------------*\
| =========                 |                                                 |
| \\      /  F ield         | OpenFOAM: The Open Source CFD Toolbox           |
|  \\    /   O peration     | Version:  2312                                  |
|   \\  /    A nd           | Website:  www.openfoam.com                      |
|    \\/     M anipulation  |                                                 |
\*---------------------------------------------------------------------------*/
FoamFile
{
    version     2.0;
    format      ascii;
    arch        "LSB;label=32;scalar=64";
    class       volScalarField;
    location    "0.00014";
    object      T;
}
// * * * * * * * * * * * * * * * * * * * * * * * * * * * * * * * * * * * * * //

dimensions      [0 0 0 1 0 0 0];

internalField   nonuniform List<scalar> 
500
(
184018
183987
183908
183785
183618
183407
183154
182859
182521
182141
181720
181258
180755
180211
179628
179004
178342
177641
176902
176126
175312
174462
173576
172655
171699
170710
169687
168632
167544
166426
165278
164100
162894
161659
160397
159110
157796
156458
155097
153712
152306
150878
149431
147964
146478
144975
143456
141920
140370
138806
137229
135639
134039
132428
130807
129178
127541
125898
124248
122593
120934
119271
117606
115938
114270
112601
110933
109266
107600
105938
104279
102624
100973
99328.5
97689.8
96057.7
94433
92816.3
91208.1
89608.9
88019.5
86440.2
84871.6
83314.2
81768.4
80234.9
78713.9
77205.9
75711.3
74230.6
72764
71312
69874.8
68452.9
67046.4
65655.8
64281.2
62922.9
61581.1
60256.2
58948.1
57657.3
56383.8
55127.7
53889.2
52668.5
51465.7
50280.8
49113.9
47965.1
46834.4
45721.9
44627.6
43551.6
42493.7
41454.1
40432.6
39429.3
38444.1
37476.9
36527.7
35596.4
34682.9
33787.1
32908.9
32048.3
31204.9
30378.9
29569.9
28777.9
28002.7
27244.1
26502
25776.3
25066.6
24372.9
23695
23032.6
22385.6
21753.8
21136.9
20534.8
19947.2
19374
18814.9
18269.7
17738.1
17220.1
16715.2
16223.4
15744.3
15277.8
14823.6
14381.5
13951.3
13532.7
13125.5
12729.5
12344.5
11970.2
11606.3
11252.8
10909.4
10575.7
10251.7
9937.14
9631.72
9335.28
9047.59
8768.46
8497.67
8235.03
7980.32
7733.35
7493.93
7261.85
7036.93
6818.99
6607.83
6403.28
6205.15
6013.28
5827.48
5647.6
5473.46
5304.9
5141.76
4983.89
4831.13
4683.34
4540.37
4402.07
4268.31
4138.94
4013.85
3892.88
3775.93
3662.87
3553.57
3447.91
3345.8
3247.1
3151.72
3059.54
2970.48
2884.42
2801.27
2720.93
2643.32
2568.35
2495.93
2425.97
2358.4
2293.14
2230.1
2169.23
2110.44
2053.67
1998.85
1945.91
1894.8
1845.45
1797.8
1751.8
1707.39
1664.52
1623.14
1583.2
1544.64
1507.43
1471.52
1436.87
1403.43
1371.16
1340.04
1310.01
1281.04
1253.1
1226.16
1200.18
1175.13
1150.99
1127.71
1105.28
1083.67
1062.85
1042.8
1023.5
1004.91
987.027
969.818
953.267
937.353
922.058
907.364
893.252
879.707
866.712
854.251
842.31
830.875
819.93
809.464
799.463
789.915
780.808
772.129
763.868
756.013
748.571
741.554
734.921
728.647
722.713
717.101
711.79
706.752
701.948
697.321
692.782
688.193
683.336
677.854
671.163
662.299
649.648
630.521
600.644
554.476
487.508
406.126
338.698
308.741
301.571
300.277
300.05
300.009
300.002
300
300
300
300
300
300
300
300
300
300
300
300
300
300
300
300
300
300
300
300
300
300
300
300
300
300
300
300
300
300
300
300
300
300
300
300
300
300
300
300
300
300
300
300
300
300
300
300
300
300
300
300
300
300
300
300
300
300
300
300
300
300
300
300
300
300
300
300
300
300
300
300
300
300
300
300
300
300
300
300
300
300
300
300
300
300
300
300
300
300
300
300
300
300
300
300
300
300
300
300
300
300
300
300
300
300
300
300
300
300
300
300
300
300
300
300
300
300
300
300
300
300
300
300
300
300
300
300
300
300
300
300
300
300
300
300
300
300
300
300
300
300
300
300
300
300
300
300
300
300
300
300
300
300
300
300
300
300
300
300
300
300
300
300
300
300
300
300
300
300
300
300
300
300
300
300
300
300
300
300
300
300
300
300
300
300
300
300
300
300
300
300
300
300
300
300
300
300
300
300
300
300
)
;

boundaryField
{
    wedge0
    {
        type            wedge;
    }
    wedge1
    {
        type            wedge;
    }
    wedge2
    {
        type            wedge;
    }
    wedge3
    {
        type            wedge;
    }
    outlet
    {
        type            zeroGradient;
    }
    defaultFaces
    {
        type            empty;
    }
}


// ************************************************************************* //
