/*--------------------------------*- C++ -*----------------------------------*\
| =========                 |                                                 |
| \\      /  F ield         | OpenFOAM: The Open Source CFD Toolbox           |
|  \\    /   O peration     | Version:  2312                                  |
|   \\  /    A nd           | Website:  www.openfoam.com                      |
|    \\/     M anipulation  |                                                 |
\*---------------------------------------------------------------------------*/
FoamFile
{
    version     2.0;
    format      ascii;
    arch        "LSB;label=32;scalar=64";
    class       volScalarField;
    location    "0.00014";
    object      thermo:e;
}
// * * * * * * * * * * * * * * * * * * * * * * * * * * * * * * * * * * * * * //

dimensions      [0 2 -2 0 0 0 0];

internalField   nonuniform List<scalar> 
500
(
1.3207e+08
1.32047e+08
1.31991e+08
1.31903e+08
1.31783e+08
1.31632e+08
1.3145e+08
1.31238e+08
1.30995e+08
1.30723e+08
1.3042e+08
1.30089e+08
1.29728e+08
1.29337e+08
1.28919e+08
1.28471e+08
1.27996e+08
1.27493e+08
1.26963e+08
1.26405e+08
1.25821e+08
1.25211e+08
1.24576e+08
1.23914e+08
1.23229e+08
1.22518e+08
1.21784e+08
1.21027e+08
1.20247e+08
1.19444e+08
1.1862e+08
1.17775e+08
1.16909e+08
1.16023e+08
1.15117e+08
1.14193e+08
1.1325e+08
1.1229e+08
1.11313e+08
1.10319e+08
1.0931e+08
1.08285e+08
1.07246e+08
1.06194e+08
1.05127e+08
1.04049e+08
1.02958e+08
1.01856e+08
1.00744e+08
9.9621e+07
9.8489e+07
9.73484e+07
9.61996e+07
9.50434e+07
9.38804e+07
9.27113e+07
9.15365e+07
9.03568e+07
8.91728e+07
8.79851e+07
8.67943e+07
8.56009e+07
8.44056e+07
8.32089e+07
8.20115e+07
8.08138e+07
7.96164e+07
7.84199e+07
7.72248e+07
7.60316e+07
7.48408e+07
7.3653e+07
7.24686e+07
7.12881e+07
7.01119e+07
6.89406e+07
6.77746e+07
6.66142e+07
6.546e+07
6.43123e+07
6.31716e+07
6.20381e+07
6.09123e+07
5.97946e+07
5.86852e+07
5.75846e+07
5.64929e+07
5.54107e+07
5.4338e+07
5.32753e+07
5.22227e+07
5.11806e+07
5.01492e+07
4.91286e+07
4.81192e+07
4.71211e+07
4.61346e+07
4.51597e+07
4.41968e+07
4.32458e+07
4.23071e+07
4.13806e+07
4.04666e+07
3.95651e+07
3.86763e+07
3.78002e+07
3.69369e+07
3.60865e+07
3.5249e+07
3.44245e+07
3.36131e+07
3.28146e+07
3.20293e+07
3.1257e+07
3.04977e+07
2.97516e+07
2.90185e+07
2.82984e+07
2.75913e+07
2.68972e+07
2.62159e+07
2.55475e+07
2.48919e+07
2.4249e+07
2.36187e+07
2.3001e+07
2.23958e+07
2.18029e+07
2.12223e+07
2.06539e+07
2.00975e+07
1.95531e+07
1.90205e+07
1.84996e+07
1.79903e+07
1.74924e+07
1.70059e+07
1.65305e+07
1.60661e+07
1.56127e+07
1.517e+07
1.47378e+07
1.43161e+07
1.39047e+07
1.35034e+07
1.31121e+07
1.27307e+07
1.23588e+07
1.19965e+07
1.16435e+07
1.12997e+07
1.09649e+07
1.06389e+07
1.03216e+07
1.00128e+07
9.7124e+06
9.42017e+06
9.13596e+06
8.85962e+06
8.59098e+06
8.32988e+06
8.07615e+06
7.82965e+06
7.59021e+06
7.35767e+06
7.13188e+06
6.91269e+06
6.69993e+06
6.49346e+06
6.29312e+06
6.09878e+06
5.91028e+06
5.72747e+06
5.55023e+06
5.37839e+06
5.21183e+06
5.05041e+06
4.89399e+06
4.74244e+06
4.59563e+06
4.45344e+06
4.31573e+06
4.18239e+06
4.05328e+06
3.9283e+06
3.80733e+06
3.69024e+06
3.57694e+06
3.46731e+06
3.36124e+06
3.25862e+06
3.15937e+06
3.06336e+06
2.97052e+06
2.88074e+06
2.79392e+06
2.70999e+06
2.62884e+06
2.55039e+06
2.47457e+06
2.40128e+06
2.33044e+06
2.26199e+06
2.19583e+06
2.13191e+06
2.07015e+06
2.01047e+06
1.95281e+06
1.89711e+06
1.8433e+06
1.79133e+06
1.74112e+06
1.69262e+06
1.64578e+06
1.60055e+06
1.55686e+06
1.51466e+06
1.47392e+06
1.43457e+06
1.39658e+06
1.3599e+06
1.32448e+06
1.29028e+06
1.25727e+06
1.2254e+06
1.19463e+06
1.16493e+06
1.13626e+06
1.10859e+06
1.08188e+06
1.05611e+06
1.03124e+06
1.00724e+06
984084
961744
940192
919404
899353
880016
861370
843393
826063
809359
793262
777752
762811
748421
734565
721226
708389
696038
684160
672738
661761
651215
641087
631366
622039
613096
604526
596319
588464
580953
573775
566922
560386
554157
548228
542591
537250
532213
527453
522950
518691
514663
510852
507236
503788
500467
497209
493916
490430
486496
481694
475332
466253
452525
431082
397948
349885
291477
243084
221584
216438
215509
215346
215317
215311
215310
215310
215310
215310
215310
215310
215310
215310
215310
215310
215310
215310
215310
215310
215310
215310
215310
215310
215310
215310
215310
215310
215310
215310
215310
215310
215310
215310
215310
215310
215310
215310
215310
215310
215310
215310
215310
215310
215310
215310
215310
215310
215310
215310
215310
215310
215310
215310
215310
215310
215310
215310
215310
215310
215310
215310
215310
215310
215310
215310
215310
215310
215310
215310
215310
215310
215310
215310
215310
215310
215310
215310
215310
215310
215310
215310
215310
215310
215310
215310
215310
215310
215310
215310
215310
215310
215310
215310
215310
215310
215310
215310
215310
215310
215310
215310
215310
215310
215310
215310
215310
215310
215310
215310
215310
215310
215310
215310
215310
215310
215310
215310
215310
215310
215310
215310
215310
215310
215310
215310
215310
215310
215310
215310
215310
215310
215310
215310
215310
215310
215310
215310
215310
215310
215310
215310
215310
215310
215310
215310
215310
215310
215310
215310
215310
215310
215310
215310
215310
215310
215310
215310
215310
215310
215310
215310
215310
215310
215310
215310
215310
215310
215310
215310
215310
215310
215310
215310
215310
215310
215310
215310
215310
215310
215310
215310
215310
215310
215310
215310
215310
215310
215310
215310
215310
215310
215310
215310
215310
215310
215310
215310
215310
215310
215310
215310
215310
215310
215310
215310
215310
215310
)
;

boundaryField
{
    wedge0
    {
        type            wedge;
    }
    wedge1
    {
        type            wedge;
    }
    wedge2
    {
        type            wedge;
    }
    wedge3
    {
        type            wedge;
    }
    outlet
    {
        type            zeroGradient;
    }
    defaultFaces
    {
        type            empty;
    }
}


// ************************************************************************* //
