/*--------------------------------*- C++ -*----------------------------------*\
| =========                 |                                                 |
| \\      /  F ield         | OpenFOAM: The Open Source CFD Toolbox           |
|  \\    /   O peration     | Version:  2312                                  |
|   \\  /    A nd           | Website:  www.openfoam.com                      |
|    \\/     M anipulation  |                                                 |
\*---------------------------------------------------------------------------*/
FoamFile
{
    version     2.0;
    format      ascii;
    arch        "LSB;label=32;scalar=64";
    class       volVectorField;
    location    "0.00014";
    object      U;
}
// * * * * * * * * * * * * * * * * * * * * * * * * * * * * * * * * * * * * * //

dimensions      [0 1 -1 0 0 0 0];

internalField   nonuniform List<vector> 
500
(
(1.69374 -3.48577e-10 3.47841e-10)
(3.04949 -3.32877e-10 3.32885e-10)
(4.5617 -3.51046e-10 3.55129e-10)
(6.16789 -3.51727e-10 3.58367e-10)
(7.81157 -3.36152e-10 3.39355e-10)
(9.47339 -3.35877e-10 3.35989e-10)
(11.1453 -3.32089e-10 3.32089e-10)
(12.8233 -3.272e-10 3.27225e-10)
(14.5054 -3.12066e-10 3.12054e-10)
(16.1903 -2.92416e-10 2.91888e-10)
(17.8772 -2.73922e-10 2.73003e-10)
(19.5656 -2.58061e-10 2.56062e-10)
(21.2551 -2.42984e-10 2.40216e-10)
(22.9456 -2.26513e-10 2.23794e-10)
(24.6368 -2.08315e-10 2.08309e-10)
(26.3286 -1.9359e-10 1.93585e-10)
(28.0209 -1.79952e-10 1.79951e-10)
(29.7136 -1.6978e-10 1.69786e-10)
(31.4066 -1.62393e-10 1.62401e-10)
(33.1 -1.60104e-10 1.60095e-10)
(34.7937 -1.58965e-10 1.58963e-10)
(36.4875 -1.5694e-10 1.56929e-10)
(38.1816 -1.56279e-10 1.56274e-10)
(39.8759 -1.55963e-10 1.55965e-10)
(41.5703 -1.54696e-10 1.54699e-10)
(43.2649 -1.51157e-10 1.51161e-10)
(44.9597 -1.47257e-10 1.47262e-10)
(46.6546 -1.44035e-10 1.44044e-10)
(48.3496 -1.38646e-10 1.38646e-10)
(50.0447 -1.33816e-10 1.33819e-10)
(51.7399 -1.28672e-10 1.28674e-10)
(53.4353 -1.24232e-10 1.24233e-10)
(55.1307 -1.18508e-10 1.1851e-10)
(56.8263 -1.12702e-10 1.12703e-10)
(58.5219 -1.07317e-10 1.07317e-10)
(60.2176 -1.02903e-10 1.02903e-10)
(61.9134 -9.91367e-11 9.91368e-11)
(63.6093 -9.51831e-11 9.51832e-11)
(65.3053 -9.12733e-11 9.12733e-11)
(67.0014 -8.77151e-11 8.77151e-11)
(68.6975 -8.37437e-11 8.37437e-11)
(70.3938 -7.8279e-11 7.8279e-11)
(72.0901 -7.32475e-11 7.32475e-11)
(73.7865 -6.80989e-11 6.80989e-11)
(75.483 -6.27132e-11 6.27132e-11)
(77.1796 -5.80761e-11 5.80761e-11)
(78.8762 -5.26521e-11 5.26521e-11)
(80.5729 -4.70571e-11 4.70571e-11)
(82.2698 -4.06028e-11 4.06028e-11)
(83.9667 -3.56118e-11 3.56118e-11)
(85.6636 -3.04478e-11 3.04478e-11)
(87.3607 -2.58408e-11 2.58408e-11)
(89.0579 -2.10637e-11 2.10637e-11)
(90.7551 -1.67683e-11 1.67683e-11)
(92.4525 -1.29434e-11 1.29434e-11)
(94.1499 -9.51785e-12 9.51785e-12)
(95.8475 -5.9699e-12 5.9699e-12)
(97.5451 -3.07965e-12 3.07965e-12)
(99.2428 9.31201e-14 -9.31201e-14)
(100.941 2.67078e-12 -2.67078e-12)
(102.639 3.70264e-12 -3.70264e-12)
(104.337 4.92984e-12 -4.92984e-12)
(106.035 5.6799e-12 -5.6799e-12)
(107.733 5.97016e-12 -5.97016e-12)
(109.431 5.87542e-12 -5.87542e-12)
(111.13 5.75878e-12 -5.75878e-12)
(112.828 5.69881e-12 -5.69881e-12)
(114.527 5.83732e-12 -5.83732e-12)
(116.226 5.26606e-12 -5.26606e-12)
(117.925 4.87355e-12 -4.87355e-12)
(119.624 4.69725e-12 -4.69725e-12)
(121.323 4.5482e-12 -4.5482e-12)
(123.023 4.36916e-12 -4.36916e-12)
(124.722 4.43739e-12 -4.43739e-12)
(126.422 4.49861e-12 -4.49866e-12)
(128.122 4.71952e-12 -4.71753e-12)
(129.821 4.28815e-12 -4.28667e-12)
(131.522 3.91022e-12 -3.91019e-12)
(133.222 3.71684e-12 -3.7171e-12)
(134.922 3.52719e-12 -3.52484e-12)
(136.623 3.46895e-12 -3.4434e-12)
(138.324 3.21641e-12 -3.16653e-12)
(140.025 2.83825e-12 -2.76088e-12)
(141.726 1.89764e-12 -1.78875e-12)
(143.427 7.53102e-13 -6.11319e-13)
(145.128 -5.4961e-13 6.44335e-13)
(146.83 -1.39933e-12 1.45637e-12)
(148.532 -2.13951e-12 2.17127e-12)
(150.234 -2.42844e-12 2.43401e-12)
(151.937 -2.59093e-12 2.59633e-12)
(153.639 -2.79038e-12 2.79096e-12)
(155.342 -2.70209e-12 2.72829e-12)
(157.045 -2.5865e-12 2.69912e-12)
(158.748 -2.53218e-12 2.63423e-12)
(160.452 -2.10311e-12 2.24134e-12)
(162.156 -1.72454e-12 1.73844e-12)
(163.86 -1.48494e-12 1.3771e-12)
(165.564 -1.15559e-12 1.15368e-12)
(167.269 -8.42689e-13 8.53604e-13)
(168.974 -4.45943e-13 4.71198e-13)
(170.679 -3.57513e-13 3.9883e-13)
(172.385 -2.44073e-13 2.96925e-13)
(174.091 -6.67355e-14 7.59632e-14)
(175.797 7.18673e-14 -1.3398e-13)
(177.504 3.25024e-13 -4.59945e-13)
(179.211 6.74927e-13 -8.08858e-13)
(180.918 8.22643e-13 -9.55032e-13)
(182.626 1.24477e-12 -1.3672e-12)
(184.334 1.58261e-12 -1.695e-12)
(186.042 2.03107e-12 -2.13445e-12)
(187.751 2.59431e-12 -2.68813e-12)
(189.461 3.25061e-12 -3.31865e-12)
(191.171 3.49821e-12 -3.53975e-12)
(192.881 3.74355e-12 -3.77072e-12)
(194.592 3.97054e-12 -3.97019e-12)
(196.303 3.88989e-12 -3.89485e-12)
(198.015 3.66079e-12 -3.67268e-12)
(199.727 3.2848e-12 -3.31551e-12)
(201.44 3.01355e-12 -2.98779e-12)
(203.154 2.65089e-12 -2.63867e-12)
(204.868 2.66039e-12 -2.66053e-12)
(206.583 2.72703e-12 -2.72674e-12)
(208.298 2.44581e-12 -2.44527e-12)
(210.014 2.22351e-12 -2.22286e-12)
(211.731 2.01869e-12 -2.01898e-12)
(213.449 1.90953e-12 -1.90966e-12)
(215.167 1.68504e-12 -1.68502e-12)
(216.886 1.37374e-12 -1.37383e-12)
(218.606 9.3565e-13 -9.35469e-13)
(220.326 5.78031e-13 -5.78026e-13)
(222.048 3.02419e-13 -3.02528e-13)
(223.77 1.10148e-13 -1.10423e-13)
(225.493 -6.49982e-15 6.48691e-15)
(227.217 -1.97922e-13 1.97917e-13)
(228.943 -3.1295e-13 3.12947e-13)
(230.669 -2.583e-13 2.58298e-13)
(232.396 -1.10708e-13 1.10707e-13)
(234.124 -1.91358e-13 1.91358e-13)
(235.854 -1.98533e-13 1.98533e-13)
(237.585 -1.97902e-13 1.97902e-13)
(239.316 -1.97453e-13 1.97453e-13)
(241.05 -1.95783e-13 1.95783e-13)
(242.784 -2.28878e-13 2.28878e-13)
(244.52 -1.93161e-13 1.93161e-13)
(246.257 -1.92129e-13 1.92129e-13)
(247.996 -1.6674e-13 1.6674e-13)
(249.736 -2.07682e-13 2.07682e-13)
(251.478 -1.89998e-13 1.89998e-13)
(253.222 -1.36371e-13 1.36368e-13)
(254.967 -1.32834e-14 1.34705e-14)
(256.714 -4.71418e-14 4.73163e-14)
(258.463 -1.22401e-13 1.22567e-13)
(260.214 -3.80653e-14 3.82241e-14)
(261.967 4.44855e-15 -4.29734e-15)
(263.722 -1.11034e-13 1.11176e-13)
(265.479 -8.79264e-14 8.80594e-14)
(267.238 -1.13349e-13 1.13521e-13)
(269 -1.76155e-13 1.7641e-13)
(270.764 -1.04622e-13 1.048e-13)
(272.53 -1.6388e-13 1.63974e-13)
(274.299 -1.8961e-13 1.89866e-13)
(276.071 -1.77328e-13 1.77365e-13)
(277.846 -1.37561e-13 1.37529e-13)
(279.623 -2.1087e-13 2.10862e-13)
(281.404 -1.75207e-13 1.75138e-13)
(283.188 -1.73691e-13 1.73665e-13)
(284.975 -1.68065e-13 1.68124e-13)
(286.766 -1.23765e-13 1.23808e-13)
(288.56 -1.71834e-13 1.71874e-13)
(290.357 -2.13661e-13 2.1366e-13)
(292.159 -2.34026e-13 2.33957e-13)
(293.965 -3.00462e-13 3.00254e-13)
(295.774 -3.56867e-13 3.56606e-13)
(297.588 -4.02723e-13 4.0248e-13)
(299.407 -5.04272e-13 5.0403e-13)
(301.23 -5.5189e-13 5.51675e-13)
(303.058 -5.30192e-13 5.29903e-13)
(304.891 -4.80204e-13 4.79808e-13)
(306.729 -4.40097e-13 4.39761e-13)
(308.573 -3.04367e-13 3.04197e-13)
(310.422 -2.10194e-13 2.10238e-13)
(312.277 -1.69017e-13 1.6942e-13)
(314.139 -1.19789e-13 1.20156e-13)
(316.006 -7.68309e-14 7.71117e-14)
(317.88 -4.10124e-14 4.12154e-14)
(319.761 -1.4209e-14 1.43246e-14)
(321.65 0 0)
(323.545 0 0)
(325.448 0 0)
(327.359 1.05365e-14 -1.05365e-14)
(329.278 5.03113e-14 -5.03113e-14)
(331.206 4.42697e-14 -4.42697e-14)
(333.143 2.27496e-14 -2.27496e-14)
(335.089 -2.24456e-15 2.24456e-15)
(337.045 2.26147e-14 -2.26147e-14)
(339.01 0 0)
(340.986 -3.45125e-14 3.45125e-14)
(342.973 -3.17865e-14 3.17865e-14)
(344.97 -1.23353e-14 1.23353e-14)
(346.979 3.28519e-14 -3.2874e-14)
(349.001 6.239e-14 -6.2279e-14)
(351.034 6.82766e-14 -6.82008e-14)
(353.08 6.59591e-14 -6.58761e-14)
(355.14 4.63406e-14 -4.6217e-14)
(357.214 1.88534e-14 -1.87502e-14)
(359.301 6.04412e-15 -5.94185e-15)
(361.404 1.69022e-14 -1.68041e-14)
(363.522 4.49664e-15 -4.3678e-15)
(365.656 1.40288e-14 -1.39088e-14)
(367.806 5.8517e-16 -4.72893e-16)
(369.973 -1.37412e-15 1.46849e-15)
(372.158 -7.22746e-15 7.2677e-15)
(374.361 -2.92042e-14 2.92539e-14)
(376.583 -4.63605e-14 4.64025e-14)
(378.825 -7.41017e-14 7.40963e-14)
(381.087 -9.10788e-14 9.10811e-14)
(383.369 -9.79513e-14 9.79687e-14)
(385.673 -9.0822e-14 9.08313e-14)
(387.999 -8.91622e-14 8.91588e-14)
(390.348 -9.05499e-14 9.05515e-14)
(392.721 -7.81053e-14 7.81434e-14)
(395.118 -6.35394e-14 6.35603e-14)
(397.541 -5.01102e-14 5.01237e-14)
(399.989 -3.689e-14 3.689e-14)
(402.464 -2.23637e-14 2.23637e-14)
(404.967 -1.9894e-14 1.9894e-14)
(407.498 -3.53934e-14 3.53934e-14)
(410.058 -5.66847e-14 5.66847e-14)
(412.649 -4.67264e-14 4.67264e-14)
(415.27 -4.68882e-14 4.68882e-14)
(417.923 -7.34891e-14 7.34891e-14)
(420.609 -7.20507e-14 7.20507e-14)
(423.329 -7.51196e-14 7.51196e-14)
(426.083 -6.89271e-14 6.89271e-14)
(428.872 -7.45915e-14 7.45915e-14)
(431.697 -7.92229e-14 7.92229e-14)
(434.56 -7.07885e-14 7.07885e-14)
(437.461 -7.263e-14 7.263e-14)
(440.401 -6.32455e-14 6.32455e-14)
(443.381 -5.88498e-14 5.88498e-14)
(446.401 -7.40835e-14 7.40835e-14)
(449.463 -7.87255e-14 7.87255e-14)
(452.568 -8.85202e-14 8.85202e-14)
(455.716 -7.57962e-14 7.57962e-14)
(458.909 -5.20208e-14 5.20208e-14)
(462.146 -3.76374e-14 3.76374e-14)
(465.43 -3.98096e-14 3.98096e-14)
(468.76 -3.45464e-14 3.45464e-14)
(472.137 -1.40341e-14 1.40341e-14)
(475.563 -1.64596e-14 1.64596e-14)
(479.038 -1.09455e-14 1.09455e-14)
(482.562 -6.34215e-15 6.34215e-15)
(486.137 -2.17992e-15 2.17992e-15)
(489.762 1.1663e-15 -1.1663e-15)
(493.438 0 -2.77592e-34)
(497.167 0 3.14776e-34)
(500.948 -2.57285e-15 2.57285e-15)
(504.781 -1.12552e-14 1.12552e-14)
(508.667 -1.16938e-14 1.16938e-14)
(512.607 -7.51438e-15 7.51438e-15)
(516.6 -1.87879e-15 1.87879e-15)
(520.647 0 0)
(524.747 9.34917e-16 -9.34917e-16)
(528.9 2.25821e-15 -2.25821e-15)
(533.106 1.41591e-14 -1.41591e-14)
(537.365 1.03853e-14 -1.03853e-14)
(541.675 2.17523e-14 -2.17523e-14)
(546.035 1.72771e-14 -1.72771e-14)
(550.445 1.52805e-14 -1.52805e-14)
(554.905 1.25284e-14 -1.25284e-14)
(559.415 9.63713e-15 -9.63713e-15)
(563.963 6.69041e-15 -6.69041e-15)
(568.544 4.13324e-15 -4.13324e-15)
(573.145 2.46094e-15 -2.46094e-15)
(577.75 4.28946e-16 -4.28946e-16)
(582.333 -8.14025e-15 8.14025e-15)
(586.853 -5.07574e-15 5.07574e-15)
(591.247 -2.24844e-15 2.24844e-15)
(595.413 0 -4.83971e-35)
(599.187 0 4.98129e-35)
(602.307 0 6.28625e-36)
(604.348 3.25917e-16 -3.25917e-16)
(604.615 6.31617e-15 -6.31617e-15)
(601.978 4.05559e-15 -4.05559e-15)
(594.592 -2.47937e-15 2.47937e-15)
(579.463 -6.24584e-16 6.24584e-16)
(551.82 0 1.44569e-36)
(504.518 0 0)
(428.781 -3.15266e-15 3.15266e-15)
(319.033 -1.46098e-15 1.46098e-15)
(187.021 0 0)
(74.9561 1.37554e-15 -1.37554e-15)
(19.7068 -1.39281e-15 1.39281e-15)
(4.04172 0 0)
(0.766587 0 0)
(0.142448 1.72999e-15 -1.72999e-15)
(0.02625 -1.71001e-15 1.71001e-15)
(0.00480831 0 0)
(0.000875884 0 0)
(0.000158689 0 0)
(2.85971e-05 -2.50426e-15 2.50426e-15)
(5.12619e-06 -7.35246e-19 7.35246e-19)
(9.14077e-07 -2.47046e-15 2.47046e-15)
(1.62144e-07 0 0)
(2.86103e-08 2.43857e-15 -2.43857e-15)
(5.01571e-09 0 0)
(8.64309e-10 0 0)
(1.35353e-10 0 0)
(1.36629e-11 -4.75077e-15 4.75077e-15)
(-1.10341e-11 -4.73561e-15 4.73561e-15)
(-2.20385e-11 -1.60424e-17 1.60424e-17)
(-3.21124e-11 0 0)
(-2.61079e-11 0 0)
(-4.45149e-12 0 0)
(5.65265e-12 2.28355e-15 -2.28355e-15)
(5.65161e-12 0 0)
(4.13218e-12 0 0)
(2.81536e-11 -3.86027e-16 3.86027e-16)
(4.32188e-11 -5.23968e-15 5.23968e-15)
(2.87083e-11 -1.4505e-14 1.4505e-14)
(1.46514e-12 -1.92948e-14 1.92948e-14)
(-6.83746e-12 -1.96655e-14 1.96655e-14)
(1.0642e-11 -1.56786e-14 1.56786e-14)
(2.1021e-11 -1.60435e-14 1.60435e-14)
(1.75924e-11 -1.20994e-14 1.20994e-14)
(2.39474e-12 -3.89793e-15 3.89793e-15)
(-6.65887e-12 0 0)
(-9.53119e-12 0 0)
(-7.47456e-12 2.09325e-15 -2.09325e-15)
(4.52441e-13 0 0)
(8.79456e-12 0 0)
(1.75531e-11 0 0)
(2.13299e-11 0 0)
(8.77185e-12 -4.06527e-15 4.06527e-15)
(-7.60326e-12 -4.05365e-15 4.05365e-15)
(-1.56359e-11 -1.27789e-17 1.27789e-17)
(-1.63458e-11 0 0)
(-2.52666e-11 0 0)
(-2.96639e-11 0 0)
(-2.75867e-11 0 0)
(-3.27519e-11 0 0)
(-1.54016e-11 -1.93673e-15 1.93673e-15)
(-5.18732e-13 0 0)
(-7.70689e-12 0 0)
(-1.04667e-11 1.90454e-15 -1.90454e-15)
(7.86515e-12 2.80426e-18 -2.80426e-18)
(1.7515e-11 1.88458e-15 -1.88458e-15)
(8.6115e-12 0 0)
(-3.64835e-12 -3.09657e-15 3.09657e-15)
(-6.12918e-12 -2.46339e-15 2.46339e-15)
(2.10929e-12 -5.52356e-15 5.52356e-15)
(1.07557e-12 -4.89692e-15 4.89692e-15)
(6.60261e-12 -6.22463e-16 6.22463e-16)
(1.32105e-11 0 0)
(1.12463e-11 0 0)
(2.55152e-12 1.78887e-15 -1.78887e-15)
(-4.79786e-12 0 0)
(-3.19397e-12 -4.23971e-15 4.23971e-15)
(-2.10996e-12 -4.93155e-15 4.93155e-15)
(-6.50971e-12 -2.11276e-15 2.11276e-15)
(-1.561e-11 -2.79297e-15 2.79297e-15)
(-2.11309e-11 0 0)
(-1.74813e-11 0 0)
(4.20278e-12 -1.71198e-15 1.71198e-15)
(9.09058e-12 -1.09725e-18 1.09725e-18)
(1.05555e-11 -1.69335e-15 1.69335e-15)
(1.583e-11 0 0)
(-6.30986e-12 1.67415e-15 -1.67415e-15)
(-2.97823e-11 0 0)
(-2.30326e-11 0 0)
(-8.7487e-12 -7.98933e-16 7.98933e-16)
(-1.31285e-11 -4.87817e-15 4.87817e-15)
(-1.46211e-11 -5.66711e-15 5.66711e-15)
(-1.54848e-11 -9.7004e-15 9.7004e-15)
(-1.31473e-11 -1.048e-14 1.048e-14)
(-1.26988e-11 -8.03874e-15 8.03874e-15)
(-1.26705e-11 -2.41559e-15 2.41559e-15)
(-9.68299e-12 0 0)
(-1.36391e-11 0 0)
(-1.01593e-11 1.5712e-15 -1.5712e-15)
(-1.45768e-11 2.71733e-18 -2.71733e-18)
(-2.59408e-11 1.55467e-15 -1.55467e-15)
(-2.41307e-11 0 0)
(-1.20556e-11 0 0)
(2.15349e-12 -1.52912e-15 1.52912e-15)
(-3.764e-13 0 0)
(-4.69935e-12 0 0)
(5.69761e-12 0 0)
(1.55358e-11 2.99663e-15 -2.99663e-15)
(1.10152e-11 2.98907e-15 -2.98907e-15)
(8.90735e-12 8.73602e-18 -8.73602e-18)
(2.12862e-11 0 0)
(1.49256e-11 0 0)
(-6.02415e-13 1.45886e-15 -1.45886e-15)
(-6.70499e-12 0 0)
(9.49069e-13 0 0)
(1.43536e-11 0 0)
(1.82565e-11 0 0)
(8.61511e-12 0 0)
(-3.4149e-12 0 0)
(1.03401e-12 0 0)
(6.20277e-12 0 0)
(1.45261e-11 5.96181e-16 -5.96181e-16)
(3.49572e-11 3.97407e-15 -3.97407e-15)
(3.50085e-11 1.01029e-14 -1.01029e-14)
(1.85401e-11 1.34448e-14 -1.34448e-14)
(8.61396e-12 1.40261e-14 -1.40261e-14)
(1.5229e-12 6.41929e-15 -6.41929e-15)
(-7.55716e-12 1.56298e-15 -1.56298e-15)
(-1.42473e-11 -5.68975e-16 5.68975e-16)
(-1.52323e-11 0 0)
(-1.22374e-11 0 0)
(-5.59753e-12 0 0)
(-3.37421e-12 0 0)
(3.67495e-12 0 0)
(1.29446e-11 0 0)
(1.75267e-11 0 0)
(1.34742e-11 0 0)
(1.05796e-11 -8.60987e-16 8.60987e-16)
(2.47512e-11 8.55067e-16 -8.55067e-16)
(3.84037e-11 0 0)
(4.23901e-11 0 0)
(2.76696e-11 -1.26744e-15 1.26744e-15)
(1.20181e-11 -1.79693e-18 1.79693e-18)
(1.93432e-12 -1.25628e-15 1.25628e-15)
(-5.32667e-12 -1.53986e-18 1.53986e-18)
(-8.03908e-12 -1.24245e-15 1.24245e-15)
(-1.36726e-11 0 0)
(-1.86551e-11 -8.23236e-16 8.23236e-16)
(-2.0688e-11 8.14941e-16 -8.14941e-16)
(-1.20242e-11 0 0)
(-2.3724e-11 1.2147e-15 -1.2147e-15)
(-2.3203e-11 1.43437e-18 -1.43437e-18)
(-4.53035e-12 1.2037e-15 -1.2037e-15)
(9.58998e-12 0 0)
(2.17699e-11 7.96174e-16 -7.96174e-16)
(2.60004e-11 -7.89788e-16 7.89788e-16)
(8.29136e-12 0 0)
(-7.93004e-12 -9.22231e-16 9.22231e-16)
(-5.2795e-12 -4.1856e-15 4.1856e-15)
(-6.81956e-12 -9.76842e-15 9.76842e-15)
(-1.71946e-11 -8.35227e-15 8.35227e-15)
(-2.67319e-11 0 0)
(-2.80259e-11 8.27121e-15 -8.27121e-15)
(-1.69016e-11 9.62643e-15 -9.62643e-15)
(-3.79261e-12 4.1287e-15 -4.1287e-15)
(-2.03957e-12 9.26006e-16 -9.26006e-16)
(1.78918e-11 0 0)
(4.73988e-11 9.53667e-16 -9.53667e-16)
(4.59804e-11 4.14435e-15 -4.14435e-15)
(2.32261e-11 6.24716e-16 -6.24716e-16)
(2.55351e-11 -1.83501e-15 1.83501e-15)
(3.12323e-11 -6.49647e-15 6.49647e-15)
(2.05061e-11 -4.52861e-15 4.52861e-15)
(8.88338e-12 -4.76247e-15 4.76247e-15)
(-5.43207e-13 -7.17791e-15 7.17791e-15)
(1.33533e-12 -1.17555e-14 1.17555e-14)
(7.40619e-13 -1.84772e-14 1.84772e-14)
(-3.73107e-12 -2.70983e-14 2.70983e-14)
(-1.05564e-11 -2.94895e-14 2.94895e-14)
(-1.69264e-11 -2.92144e-14 2.92144e-14)
(-1.64628e-11 -2.61905e-14 2.61905e-14)
(-2.20042e-11 -1.68125e-14 1.68125e-14)
(-2.02561e-11 -9.43113e-15 9.43113e-15)
(-8.75952e-12 -4.18105e-15 4.18105e-15)
(-9.78083e-12 -1.04329e-15 1.04329e-15)
(1.39381e-12 0 0)
(2.75507e-11 0 0)
(1.68504e-11 0 0)
(-2.6171e-12 0 0)
(-1.13372e-11 0 0)
(-4.2047e-12 6.73757e-16 -6.73757e-16)
(1.14666e-11 3.28876e-15 -3.28876e-15)
(1.62131e-12 -1.70447e-16 1.70447e-16)
(-1.41289e-11 -5.62369e-15 5.62369e-15)
(-8.21758e-12 -5.04451e-15 5.04451e-15)
(1.26288e-11 -6.46042e-15 6.46042e-15)
(2.44105e-11 -1.91121e-15 1.91121e-15)
(1.49024e-11 6.41744e-16 -6.41744e-16)
(-1.52517e-11 3.70502e-15 -3.70502e-15)
(-4.18473e-11 8.70948e-16 -8.70948e-16)
(-4.38169e-11 0 0)
(-2.85328e-11 0 0)
(-2.67363e-11 -3.41019e-16 3.41019e-16)
(-3.05199e-11 -2.60977e-15 2.60977e-15)
(-9.11677e-12 -6.7908e-15 6.7908e-15)
(1.34066e-11 -5.21132e-15 5.21132e-15)
(1.44374e-11 -9.35784e-15 9.35784e-15)
(-2.67912e-12 -1.53836e-14 1.53836e-14)
(-1.80216e-11 -2.32269e-14 2.32269e-14)
(-1.40344e-11 -2.53562e-14 2.53562e-14)
(-5.05394e-12 -2.35484e-14 2.35484e-14)
(3.01069e-12 -1.61462e-14 1.61462e-14)
(8.86781e-12 -1.05699e-14 1.05699e-14)
(1.35468e-11 -6.86811e-15 6.86811e-15)
(3.11365e-11 -5.02586e-15 5.02586e-15)
(3.47357e-11 -5.02812e-15 5.02812e-15)
(2.38524e-11 -6.86023e-15 6.86023e-15)
(5.86374e-12 -3.21592e-15 3.21592e-15)
(-1.13574e-11 -1.40092e-15 1.40092e-15)
)
;

boundaryField
{
    wedge0
    {
        type            wedge;
    }
    wedge1
    {
        type            wedge;
    }
    wedge2
    {
        type            wedge;
    }
    wedge3
    {
        type            wedge;
    }
    outlet
    {
        type            zeroGradient;
    }
    defaultFaces
    {
        type            empty;
    }
}


// ************************************************************************* //
