/*--------------------------------*- C++ -*----------------------------------*\
| =========                 |                                                 |
| \\      /  F ield         | OpenFOAM: The Open Source CFD Toolbox           |
|  \\    /   O peration     | Version:  2312                                  |
|   \\  /    A nd           | Website:  www.openfoam.com                      |
|    \\/     M anipulation  |                                                 |
\*---------------------------------------------------------------------------*/
FoamFile
{
    version     2.0;
    format      ascii;
    arch        "LSB;label=32;scalar=64";
    class       volScalarField;
    location    "0.03";
    object      rho;
}
// * * * * * * * * * * * * * * * * * * * * * * * * * * * * * * * * * * * * * //

dimensions      [1 -3 0 0 0 0 0];

internalField   nonuniform List<scalar> 
100
(
0.650943
0.64819
0.644746
0.641445
0.638181
0.634943
0.631812
0.628655
0.625718
0.622641
0.619907
0.616908
0.614227
0.611314
0.60841
0.605525
0.60223
0.599162
0.595529
0.592077
0.588204
0.58436
0.580295
0.576181
0.571972
0.567718
0.56343
0.559128
0.554825
0.550534
0.546264
0.542022
0.537814
0.533645
0.52952
0.525444
0.521419
0.51745
0.513541
0.509699
0.505927
0.502235
0.498624
0.495113
0.491695
0.48841
0.48522
0.482223
0.4793
0.476671
0.474056
0.471885
0.469631
0.467979
0.466162
0.46502
0.463733
0.463006
0.462317
0.461861
0.461743
0.461441
0.461761
0.461545
0.462146
0.461952
0.46277
0.462472
0.463555
0.462996
0.464425
0.463552
0.46526
0.464247
0.465909
0.465214
0.466334
0.4665
0.466699
0.468065
0.46753
0.470039
0.469563
0.472855
0.473696
0.478019
0.482144
0.489757
0.500326
0.514786
0.532227
0.550241
0.56617
0.578391
0.586282
0.591025
0.593879
0.595326
0.595673
0.595651
)
;

boundaryField
{
    sides
    {
        type            zeroGradient;
    }
    empty
    {
        type            empty;
    }
}


// ************************************************************************* //
