/*--------------------------------*- C++ -*----------------------------------*\
| =========                 |                                                 |
| \\      /  F ield         | OpenFOAM: The Open Source CFD Toolbox           |
|  \\    /   O peration     | Version:  2312                                  |
|   \\  /    A nd           | Website:  www.openfoam.com                      |
|    \\/     M anipulation  |                                                 |
\*---------------------------------------------------------------------------*/
FoamFile
{
    version     2.0;
    format      ascii;
    arch        "LSB;label=32;scalar=64";
    class       volScalarField;
    location    "0.03";
    object      T;
}
// * * * * * * * * * * * * * * * * * * * * * * * * * * * * * * * * * * * * * //

dimensions      [0 0 0 1 0 0 0];

internalField   nonuniform List<scalar> 
100
(
257.405
256.591
255.212
253.976
252.565
251.417
249.765
248.891
246.75
246.386
243.55
243.791
240.401
240.946
237.604
237.884
235.222
234.917
233.087
232.342
231.085
230.197
229.226
228.364
227.523
226.723
225.95
225.198
224.464
223.744
223.034
222.333
221.639
220.952
220.271
219.596
218.927
218.264
217.609
216.961
216.323
215.691
215.079
214.461
213.894
213.276
212.795
212.133
211.826
211.026
211.039
209.953
210.473
208.951
210.115
208.11
209.881
207.564
209.648
207.403
209.334
207.615
208.936
208.102
208.47
208.798
207.874
209.759
207.002
211.113
205.729
212.872
204.149
214.774
202.697
216.238
202.02
216.642
202.638
215.76
204.512
214.012
207.041
212.415
209.505
211.927
211.6
213.173
214.374
217.014
219.488
222.914
225.472
227.953
229.634
230.855
231.184
231.579
231.79
231.989
)
;

boundaryField
{
    sides
    {
        type            zeroGradient;
    }
    empty
    {
        type            empty;
    }
}


// ************************************************************************* //
