/*--------------------------------*- C++ -*----------------------------------*\
| =========                 |                                                 |
| \\      /  F ield         | OpenFOAM: The Open Source CFD Toolbox           |
|  \\    /   O peration     | Version:  2312                                  |
|   \\  /    A nd           | Website:  www.openfoam.com                      |
|    \\/     M anipulation  |                                                 |
\*---------------------------------------------------------------------------*/
FoamFile
{
    version     2.0;
    format      ascii;
    arch        "LSB;label=32;scalar=64";
    class       volScalarField;
    location    "0.03";
    object      thermo:e;
}
// * * * * * * * * * * * * * * * * * * * * * * * * * * * * * * * * * * * * * //

dimensions      [0 2 -2 0 0 0 0];

internalField   nonuniform List<scalar> 
100
(
185126
184540
183548
182659
181645
180819
179631
179002
177462
177201
175161
175334
172896
173289
170885
171086
169172
168952
167636
167101
166196
165558
164859
164239
163634
163059
162503
161963
161435
160917
160406
159902
159403
158909
158419
157933
157452
156976
156504
156038
155580
155125
154685
154241
153833
153388
153042
152566
152345
151770
151779
150998
151372
150277
151115
149673
150947
149280
150779
149164
150553
149317
150266
149667
149931
150168
149503
150859
148876
151833
147961
153098
146824
154466
145780
155518
145293
155809
145737
155175
147085
153918
148904
152769
150676
152418
152183
153314
154178
156076
157856
160320
162160
163944
165153
166031
166268
166551
166703
166847
)
;

boundaryField
{
    sides
    {
        type            zeroGradient;
    }
    empty
    {
        type            empty;
    }
}


// ************************************************************************* //
