/*--------------------------------*- C++ -*----------------------------------*\
| =========                 |                                                 |
| \\      /  F ield         | OpenFOAM: The Open Source CFD Toolbox           |
|  \\    /   O peration     | Version:  2212                                  |
|   \\  /    A nd           | Website:  www.openfoam.com                      |
|    \\/     M anipulation  |                                                 |
\*---------------------------------------------------------------------------*/
FoamFile
{
    version     2.0;
    format      ascii;
    arch        "LSB;label=32;scalar=64";
    class       volScalarField;
    location    "0.01";
    object      p;
}
// * * * * * * * * * * * * * * * * * * * * * * * * * * * * * * * * * * * * * //

dimensions      [1 -1 -2 0 0 0 0];

internalField   nonuniform List<scalar> 
100
(
100000
100000
100000
100000
100000
100000
100000
100000
100000
100000
100000
100000
100000
100000
99998.5
99833
97947.7
93307.3
88539
84788.3
81713.5
78965.2
76378.5
73891.6
71483.8
69147.7
66879.5
64676.4
62535.9
60455.5
58433.2
56466.9
54554.9
52695.5
50887.2
49128.6
47418.6
45756.1
44140.3
42570.3
41045.6
39565.6
38130
36738.6
35391.5
34089.6
32834.5
31629.9
30483.1
29416.7
28498.3
27950.9
28520.3
28591.4
28408.3
28318.4
28315.1
28374.2
28384.3
28382.4
28394.3
28401.5
28383.7
28368.2
28408.3
28420.9
28424.9
28435.7
28433
28417.6
28431.3
28452.9
28450.6
28456.8
28468.9
28464.7
28464.3
28541.1
28587
28776.7
28923.7
28314.6
28129.6
28127.2
28140.5
28370.1
28900.2
29040
28968.2
28613.7
28084.7
27988.4
27971.6
27971.7
28121.9
28693.8
28898.2
29145.8
29630
29172.1
)
;

boundaryField
{
    sides
    {
        type            zeroGradient;
    }
    empty
    {
        type            empty;
    }
}


// ************************************************************************* //
