/*--------------------------------*- C++ -*----------------------------------*\
| =========                 |                                                 |
| \\      /  F ield         | OpenFOAM: The Open Source CFD Toolbox           |
|  \\    /   O peration     | Version:  2212                                  |
|   \\  /    A nd           | Website:  www.openfoam.com                      |
|    \\/     M anipulation  |                                                 |
\*---------------------------------------------------------------------------*/
FoamFile
{
    version     2.0;
    format      ascii;
    arch        "LSB;label=32;scalar=64";
    class       volScalarField;
    location    "0.01";
    object      p;
}
// * * * * * * * * * * * * * * * * * * * * * * * * * * * * * * * * * * * * * //

dimensions      [1 -1 -2 0 0 0 0];

internalField   nonuniform List<scalar> 
100
(
99908.7
99852
99766.6
99641.5
99464
99219.2
98891.7
98465.6
97926.4
97261.7
96462.4
95523.2
94443
93224.3
91873.7
90400.1
88815
87131
85361.4
83519.8
81619.2
79672.2
77690.4
75684.3
73663.6
71636.9
69611.6
67594.5
65591.3
63606.9
61645.7
59711.3
57806.9
55935
54097.9
52297.5
50535.3
48812.6
47130.6
45490.2
43892.2
42337.4
40826.7
39360.8
37941
36568.8
35246.4
33977.2
32766.8
31625.1
30570.3
29639.2
28912.3
28544.1
28481.7
28467.8
28458.4
28451.2
28445.7
28441.5
28438.8
28437.6
28437.5
28438.3
28439.6
28441.1
28442.7
28444.5
28446.2
28448
28449.7
28451.4
28453.1
28454.7
28456.3
28457.9
28459.4
28460.9
28462.3
28463.8
28465.2
28466.7
28468.1
28469.7
28471.2
28472.8
28474.5
28476.3
28478.2
28480.2
28482.3
28484.6
28487.2
28491.3
28501.4
28529.2
28596.8
28720.4
28864.9
28942.7
)
;

boundaryField
{
    sides
    {
        type            zeroGradient;
    }
    empty
    {
        type            empty;
    }
}


// ************************************************************************* //
