/*--------------------------------*- C++ -*----------------------------------*\
| =========                 |                                                 |
| \\      /  F ield         | OpenFOAM: The Open Source CFD Toolbox           |
|  \\    /   O peration     | Version:  2312                                  |
|   \\  /    A nd           | Website:  www.openfoam.com                      |
|    \\/     M anipulation  |                                                 |
\*---------------------------------------------------------------------------*/
FoamFile
{
    version     2.0;
    format      ascii;
    arch        "LSB;label=32;scalar=64";
    class       volScalarField;
    location    "0.01";
    object      p;
}
// * * * * * * * * * * * * * * * * * * * * * * * * * * * * * * * * * * * * * //

dimensions      [1 -1 -2 0 0 0 0];

internalField   nonuniform List<scalar> 
100
(
99910.8
99855.3
99771.5
99648.8
99474.3
99233.5
98910.8
98490.4
97957.8
97300.6
96509.2
95578.4
94506.7
93296.6
91954.2
90488.5
88910.8
87233.6
85470.3
83634.2
81738.5
79795.7
77817.5
75814.5
73796.4
71771.7
69748.1
67732.3
65729.9
63746.2
61785.3
59851
57946.4
56074.2
54236.6
52435.5
50672.5
48948.9
47265.7
45624.1
44024.7
42468.4
40956
39488.2
38066.3
36691.6
35366.1
34093.3
32878.2
31730
30665.7
29719.9
28969.6
28574.7
28504.7
28489.5
28480.1
28474
28470.3
28468.1
28467.1
28466.8
28467.1
28467.8
28468.9
28470.1
28471.5
28473
28474.5
28476.1
28477.6
28479.2
28480.7
28482.3
28483.7
28485.2
28486.6
28488
28489.4
28490.8
28492.1
28493.5
28494.9
28496.4
28497.8
28499.4
28501
28502.7
28504.5
28506.4
28508.4
28510.5
28512.9
28516.7
28525.9
28552.2
28617.4
28739
28883.9
28963.6
)
;

boundaryField
{
    sides
    {
        type            zeroGradient;
    }
    empty
    {
        type            empty;
    }
}


// ************************************************************************* //
