/*--------------------------------*- C++ -*----------------------------------*\
| =========                 |                                                 |
| \\      /  F ield         | OpenFOAM: The Open Source CFD Toolbox           |
|  \\    /   O peration     | Version:  2312                                  |
|   \\  /    A nd           | Website:  www.openfoam.com                      |
|    \\/     M anipulation  |                                                 |
\*---------------------------------------------------------------------------*/
FoamFile
{
    version     2.0;
    format      ascii;
    arch        "LSB;label=32;scalar=64";
    class       volScalarField;
    location    "0.01";
    object      p;
}
// * * * * * * * * * * * * * * * * * * * * * * * * * * * * * * * * * * * * * //

dimensions      [1 -1 -2 0 0 0 0];

internalField   nonuniform List<scalar> 
100
(
64915.7
63832.4
62774.5
61726.5
60688.5
59660.8
58643.8
57637.6
56642.6
55658.9
54686.8
53726.3
52777.5
51840.5
50915.4
50002.2
49101
48212
47335
46470.2
45617.5
44777
43948.8
43132.8
42328.9
41537.4
40758.1
39991.2
39236.6
38494.5
37764.9
37048
36343.9
35653
34975.5
34311.8
33662.5
33028.5
32410.6
31810.3
31229.6
30670.9
30137.8
29635.3
29169.8
28749.9
28386.3
28090.3
27870.7
27728.2
27650.8
27615.9
27601.5
27594.8
27591.1
27589.3
27588.9
27589.4
27590.5
27592
27593.8
27595.7
27597.6
27599.5
27601.3
27603.1
27604.8
27606.4
27608
27609.5
27610.9
27612.3
27613.7
27614.9
27616.3
27617.9
27620.2
27624.4
27632.6
27648.4
27676.9
27723.8
27792.4
27881.2
27981.6
28081
28167.5
28235.2
28285.9
28326.7
28366.8
28415.1
28478
28559
28659.2
28776.3
28905.9
29041.1
29174.1
29409.6
)
;

boundaryField
{
    sides
    {
        type            zeroGradient;
    }
    empty
    {
        type            empty;
    }
}


// ************************************************************************* //
