/*--------------------------------*- C++ -*----------------------------------*\
| =========                 |                                                 |
| \\      /  F ield         | OpenFOAM: The Open Source CFD Toolbox           |
|  \\    /   O peration     | Version:  2212                                  |
|   \\  /    A nd           | Website:  www.openfoam.com                      |
|    \\/     M anipulation  |                                                 |
\*---------------------------------------------------------------------------*/
FoamFile
{
    version     2.0;
    format      ascii;
    arch        "LSB;label=32;scalar=64";
    class       volScalarField;
    location    "0.01";
    object      rho;
}
// * * * * * * * * * * * * * * * * * * * * * * * * * * * * * * * * * * * * * //

dimensions      [1 -3 0 0 0 0 0];

internalField   nonuniform List<scalar> 
100
(
1.16103
1.16103
1.16103
1.16103
1.16103
1.16103
1.16103
1.16103
1.16103
1.16103
1.16103
1.16103
1.16103
1.16103
1.16102
1.15965
1.14401
1.10527
1.06491
1.03272
1.00601
0.981886
0.958954
0.936691
0.914926
0.893606
0.872703
0.852202
0.832087
0.812344
0.792962
0.77393
0.755236
0.736873
0.718834
0.70111
0.683698
0.666595
0.649797
0.633304
0.617117
0.601237
0.585667
0.570413
0.555485
0.540899
0.526685
0.512893
0.499622
0.487151
0.476301
0.469797
0.47655
0.477461
0.475321
0.474212
0.474191
0.474861
0.47503
0.475024
0.475167
0.475292
0.475095
0.474957
0.475431
0.475652
0.475782
0.476105
0.476507
0.476892
0.477224
0.47749
0.477154
0.476127
0.472967
0.464156
0.443601
0.404075
0.34495
0.286404
0.249343
0.23289
0.230067
0.230116
0.230652
0.232747
0.236656
0.238071
0.238341
0.236721
0.233771
0.233451
0.233604
0.233898
0.235142
0.238799
0.240032
0.241296
0.243497
0.240225
)
;

boundaryField
{
    sides
    {
        type            calculated;
        value           nonuniform List<scalar> 2(0.240225 1.16103);
    }
    empty
    {
        type            empty;
    }
}


// ************************************************************************* //
