/*--------------------------------*- C++ -*----------------------------------*\
| =========                 |                                                 |
| \\      /  F ield         | OpenFOAM: The Open Source CFD Toolbox           |
|  \\    /   O peration     | Version:  2312                                  |
|   \\  /    A nd           | Website:  www.openfoam.com                      |
|    \\/     M anipulation  |                                                 |
\*---------------------------------------------------------------------------*/
FoamFile
{
    version     2.0;
    format      ascii;
    arch        "LSB;label=32;scalar=64";
    class       volScalarField;
    location    "0.01";
    object      rho;
}
// * * * * * * * * * * * * * * * * * * * * * * * * * * * * * * * * * * * * * //

dimensions      [1 -3 0 0 0 0 0];

internalField   nonuniform List<scalar> 
100
(
1.15788
1.15742
1.15673
1.15571
1.15427
1.15227
1.14959
1.14609
1.14165
1.13617
1.12954
1.12173
1.1127
1.10247
1.09107
1.07856
1.06503
1.05057
1.03528
1.01926
1.0026
0.98542
0.967798
0.949822
0.931571
0.913117
0.894522
0.875844
0.857134
0.838437
0.819792
0.801234
0.782794
0.764499
0.746374
0.72844
0.710716
0.693218
0.675964
0.658967
0.642241
0.625801
0.60966
0.593836
0.578346
0.563215
0.548474
0.534169
0.520371
0.507197
0.494858
0.483778
0.474889
0.470113
0.469129
0.468772
0.468458
0.468157
0.467848
0.467515
0.467138
0.466695
0.466155
0.465473
0.464579
0.463369
0.461696
0.459358
0.456103
0.45164
0.445674
0.437953
0.428318
0.416758
0.403429
0.388654
0.372886
0.356652
0.340495
0.32491
0.310311
0.297004
0.285183
0.274938
0.266269
0.259105
0.253324
0.248772
0.245276
0.242661
0.240758
0.239414
0.238495
0.237896
0.237552
0.237461
0.237702
0.238338
0.239146
0.239586
)
;

boundaryField
{
    sides
    {
        type            calculated;
        value           nonuniform List<scalar> 2(0.239586 1.15788);
    }
    empty
    {
        type            empty;
    }
}


// ************************************************************************* //
