/*--------------------------------*- C++ -*----------------------------------*\
| =========                 |                                                 |
| \\      /  F ield         | OpenFOAM: The Open Source CFD Toolbox           |
|  \\    /   O peration     | Version:  2312                                  |
|   \\  /    A nd           | Website:  www.openfoam.com                      |
|    \\/     M anipulation  |                                                 |
\*---------------------------------------------------------------------------*/
FoamFile
{
    version     2.0;
    format      ascii;
    arch        "LSB;label=32;scalar=64";
    class       volScalarField;
    location    "0.01";
    object      rho;
}
// * * * * * * * * * * * * * * * * * * * * * * * * * * * * * * * * * * * * * //

dimensions      [1 -3 0 0 0 0 0];

internalField   nonuniform List<scalar> 
100
(
0.216225
0.214053
0.211916
0.209785
0.207658
0.205537
0.203423
0.201315
0.199215
0.197124
0.195042
0.19297
0.190908
0.188856
0.186815
0.184786
0.182769
0.180764
0.178772
0.176793
0.174828
0.172876
0.170938
0.169014
0.167106
0.165212
0.163333
0.16147
0.159623
0.157793
0.15598
0.154185
0.152409
0.150652
0.148916
0.147203
0.145514
0.143852
0.142221
0.140624
0.139067
0.137558
0.136109
0.134732
0.133448
0.132282
0.131266
0.130434
0.129811
0.129402
0.129175
0.129066
0.129014
0.128984
0.128961
0.128943
0.128929
0.128916
0.128904
0.128893
0.128882
0.12887
0.128858
0.128844
0.128829
0.128813
0.128795
0.128775
0.128753
0.128729
0.128703
0.128673
0.12864
0.128603
0.128561
0.128514
0.128461
0.128403
0.128343
0.128285
0.128239
0.128209
0.128195
0.128174
0.128104
0.127925
0.127575
0.127007
0.126189
0.125106
0.123746
0.122102
0.120164
0.117927
0.115389
0.112557
0.109451
0.106117
0.102693
0.0999458
)
;

boundaryField
{
    sides
    {
        type            calculated;
        value           nonuniform List<scalar> 2(0.0999458 0.216225);
    }
    empty
    {
        type            empty;
    }
}


// ************************************************************************* //
