/*--------------------------------*- C++ -*----------------------------------*\
| =========                 |                                                 |
| \\      /  F ield         | OpenFOAM: The Open Source CFD Toolbox           |
|  \\    /   O peration     | Version:  2212                                  |
|   \\  /    A nd           | Website:  www.openfoam.com                      |
|    \\/     M anipulation  |                                                 |
\*---------------------------------------------------------------------------*/
FoamFile
{
    version     2.0;
    format      ascii;
    arch        "LSB;label=32;scalar=64";
    class       volScalarField;
    location    "0.01";
    object      rho;
}
// * * * * * * * * * * * * * * * * * * * * * * * * * * * * * * * * * * * * * //

dimensions      [1 -3 0 0 0 0 0];

internalField   nonuniform List<scalar> 
100
(
1.16027
1.15981
1.1591
1.15807
1.1566
1.15458
1.15186
1.14833
1.14385
1.13831
1.13164
1.12378
1.1147
1.10442
1.09298
1.08044
1.06688
1.05239
1.03708
1.02104
1.00437
0.987182
0.969556
0.95158
0.933332
0.914882
0.896294
0.877623
0.858921
0.840232
0.821596
0.803046
0.784614
0.766326
0.748207
0.730278
0.712558
0.695064
0.677812
0.660816
0.644091
0.627651
0.61151
0.595686
0.580198
0.56507
0.550337
0.536047
0.522275
0.509146
0.496889
0.485955
0.47732
0.472844
0.471946
0.471599
0.47128
0.47096
0.470622
0.470256
0.469848
0.469378
0.468814
0.468102
0.467167
0.465898
0.464137
0.461674
0.458247
0.453561
0.447317
0.439268
0.42927
0.417329
0.403625
0.388504
0.372436
0.355961
0.339624
0.323922
0.309258
0.295931
0.284123
0.273913
0.265293
0.258184
0.252459
0.247959
0.244511
0.241936
0.240066
0.238748
0.23785
0.237269
0.23694
0.236866
0.237123
0.23777
0.238572
0.239
)
;

boundaryField
{
    sides
    {
        type            calculated;
        value           nonuniform List<scalar> 2(0.239 1.16027);
    }
    empty
    {
        type            empty;
    }
}


// ************************************************************************* //
