/*--------------------------------*- C++ -*----------------------------------*\
| =========                 |                                                 |
| \\      /  F ield         | OpenFOAM: The Open Source CFD Toolbox           |
|  \\    /   O peration     | Version:  2212                                  |
|   \\  /    A nd           | Website:  www.openfoam.com                      |
|    \\/     M anipulation  |                                                 |
\*---------------------------------------------------------------------------*/
FoamFile
{
    version     2.0;
    format      ascii;
    arch        "LSB;label=32;scalar=64";
    class       volScalarField;
    location    "0.01";
    object      T;
}
// * * * * * * * * * * * * * * * * * * * * * * * * * * * * * * * * * * * * * //

dimensions      [0 0 0 1 0 0 0];

internalField   nonuniform List<scalar> 
100
(
299.921
299.872
299.797
299.689
299.534
299.321
299.036
298.664
298.192
297.607
296.902
296.069
295.104
294.007
292.78
291.428
289.958
288.376
286.691
284.913
283.049
281.108
279.099
277.028
274.904
272.732
270.518
268.267
265.985
263.675
261.342
258.988
256.618
254.234
251.839
249.434
247.024
244.608
242.191
239.773
237.358
234.947
232.544
230.15
227.77
225.41
223.074
220.774
218.524
216.348
214.291
212.439
210.978
210.263
210.202
210.255
210.327
210.417
210.527
210.66
210.823
211.025
211.279
211.606
212.039
212.628
213.447
214.598
216.216
218.464
221.527
225.6
230.868
237.487
245.564
255.135
266.157
278.49
291.901
306.067
320.595
335.05
348.993
362.021
373.804
384.118
392.852
400.006
405.676
410.022
413.246
415.56
417.167
418.25
418.978
419.52
420.057
420.724
421.419
421.798
)
;

boundaryField
{
    sides
    {
        type            zeroGradient;
    }
    empty
    {
        type            empty;
    }
}


// ************************************************************************* //
