/*--------------------------------*- C++ -*----------------------------------*\
| =========                 |                                                 |
| \\      /  F ield         | OpenFOAM: The Open Source CFD Toolbox           |
|  \\    /   O peration     | Version:  2212                                  |
|   \\  /    A nd           | Website:  www.openfoam.com                      |
|    \\/     M anipulation  |                                                 |
\*---------------------------------------------------------------------------*/
FoamFile
{
    version     2.0;
    format      ascii;
    arch        "LSB;label=32;scalar=64";
    class       volScalarField;
    location    "0.01";
    object      T;
}
// * * * * * * * * * * * * * * * * * * * * * * * * * * * * * * * * * * * * * //

dimensions      [0 0 0 1 0 0 0];

internalField   nonuniform List<scalar> 
100
(
300
300
300
300
300
300
300
300
300
300
300
300
300
300
299.999
299.856
298.213
294.044
289.591
285.968
282.914
280.116
277.42
274.766
272.136
269.523
266.926
264.343
261.773
259.215
256.668
254.13
251.603
249.083
246.572
244.069
241.573
239.084
236.604
234.131
231.666
229.212
226.767
224.335
221.917
219.517
217.142
214.8
212.511
210.327
208.402
207.228
208.454
208.574
208.172
207.999
207.983
208.123
208.123
208.112
208.136
208.134
208.091
208.038
208.124
208.12
208.092
208.029
207.835
207.554
207.51
207.552
207.681
208.174
209.654
213.603
223.497
246.021
288.654
349.966
404.037
423.471
425.865
425.738
424.95
424.561
425.35
424.869
423.338
421.019
418.449
417.586
417.062
416.539
416.562
418.523
419.34
420.717
423.84
422.975
)
;

boundaryField
{
    sides
    {
        type            zeroGradient;
    }
    empty
    {
        type            empty;
    }
}


// ************************************************************************* //
