/*--------------------------------*- C++ -*----------------------------------*\
| =========                 |                                                 |
| \\      /  F ield         | OpenFOAM: The Open Source CFD Toolbox           |
|  \\    /   O peration     | Version:  2312                                  |
|   \\  /    A nd           | Website:  www.openfoam.com                      |
|    \\/     M anipulation  |                                                 |
\*---------------------------------------------------------------------------*/
FoamFile
{
    version     2.0;
    format      ascii;
    arch        "LSB;label=32;scalar=64";
    class       volScalarField;
    location    "0.01";
    object      T;
}
// * * * * * * * * * * * * * * * * * * * * * * * * * * * * * * * * * * * * * //

dimensions      [0 0 0 1 0 0 0];

internalField   nonuniform List<scalar> 
100
(
252.759
251.064
249.392
247.72
246.049
244.378
242.709
241.042
239.378
237.716
236.057
234.402
232.75
231.101
229.456
227.815
226.178
224.546
222.918
221.295
219.677
218.064
216.457
214.856
213.26
211.671
210.089
208.514
206.947
205.388
203.837
202.295
200.764
199.244
197.736
196.241
194.762
193.301
191.861
190.447
189.063
187.717
186.419
185.183
184.028
182.978
182.062
181.314
180.759
180.403
180.216
180.14
180.119
180.118
180.125
180.138
180.156
180.177
180.2
180.226
180.253
180.282
180.312
180.343
180.376
180.411
180.447
180.486
180.526
180.57
180.617
180.667
180.722
180.782
180.85
180.927
181.017
181.126
181.265
181.45
181.703
182.052
182.524
183.136
183.896
184.808
185.885
187.166
188.717
190.626
192.994
195.926
199.525
203.89
209.105
215.243
222.347
230.405
239.177
247.735
)
;

boundaryField
{
    sides
    {
        type            zeroGradient;
    }
    empty
    {
        type            empty;
    }
}


// ************************************************************************* //
