/*--------------------------------*- C++ -*----------------------------------*\
| =========                 |                                                 |
| \\      /  F ield         | OpenFOAM: The Open Source CFD Toolbox           |
|  \\    /   O peration     | Version:  2312                                  |
|   \\  /    A nd           | Website:  www.openfoam.com                      |
|    \\/     M anipulation  |                                                 |
\*---------------------------------------------------------------------------*/
FoamFile
{
    version     2.0;
    format      ascii;
    arch        "LSB;label=32;scalar=64";
    class       volScalarField;
    location    "0.01";
    object      T;
}
// * * * * * * * * * * * * * * * * * * * * * * * * * * * * * * * * * * * * * //

dimensions      [0 0 0 1 0 0 0];

internalField   nonuniform List<scalar> 
100
(
299.924
299.876
299.804
299.699
299.549
299.342
299.064
298.702
298.242
297.671
296.982
296.167
295.222
294.146
292.943
291.616
290.171
288.616
286.959
285.209
283.374
281.463
279.483
277.443
275.348
273.206
271.022
268.802
266.549
264.27
261.966
259.642
257.301
254.947
252.58
250.204
247.822
245.435
243.045
240.654
238.266
235.881
233.503
231.134
228.779
226.441
224.127
221.847
219.613
217.449
215.395
213.532
212.038
211.272
211.197
211.245
211.317
211.408
211.519
211.654
211.817
212.016
212.264
212.58
212.997
213.562
214.347
215.449
216.999
219.155
222.101
226.029
231.126
237.549
245.41
254.753
265.539
277.639
290.828
304.792
319.147
333.462
347.302
360.261
372.01
382.317
391.063
398.243
403.944
408.324
411.58
413.922
415.552
416.653
417.392
417.936
418.466
419.123
419.814
420.197
)
;

boundaryField
{
    sides
    {
        type            zeroGradient;
    }
    empty
    {
        type            empty;
    }
}


// ************************************************************************* //
