/*--------------------------------*- C++ -*----------------------------------*\
| =========                 |                                                 |
| \\      /  F ield         | OpenFOAM: The Open Source CFD Toolbox           |
|  \\    /   O peration     | Version:  2212                                  |
|   \\  /    A nd           | Website:  www.openfoam.com                      |
|    \\/     M anipulation  |                                                 |
\*---------------------------------------------------------------------------*/
FoamFile
{
    version     2.0;
    format      ascii;
    arch        "LSB;label=32;scalar=64";
    class       volScalarField;
    location    "0.01";
    object      thermo:psi;
}
// * * * * * * * * * * * * * * * * * * * * * * * * * * * * * * * * * * * * * //

dimensions      [0 -2 2 0 0 0 0];

internalField   nonuniform List<scalar> 
100
(
1.16103e-05
1.16103e-05
1.16103e-05
1.16103e-05
1.16103e-05
1.16103e-05
1.16103e-05
1.16103e-05
1.16103e-05
1.16103e-05
1.16103e-05
1.16103e-05
1.16103e-05
1.16103e-05
1.16103e-05
1.16159e-05
1.16798e-05
1.18455e-05
1.20276e-05
1.218e-05
1.23114e-05
1.24344e-05
1.25553e-05
1.26766e-05
1.27991e-05
1.29231e-05
1.30489e-05
1.31764e-05
1.33058e-05
1.34371e-05
1.35704e-05
1.37059e-05
1.38436e-05
1.39836e-05
1.4126e-05
1.42709e-05
1.44184e-05
1.45684e-05
1.47212e-05
1.48767e-05
1.50349e-05
1.51959e-05
1.53597e-05
1.55263e-05
1.56954e-05
1.5867e-05
1.60406e-05
1.62155e-05
1.63901e-05
1.65603e-05
1.67133e-05
1.68079e-05
1.67092e-05
1.66995e-05
1.67318e-05
1.67457e-05
1.6747e-05
1.67357e-05
1.67357e-05
1.67366e-05
1.67346e-05
1.67348e-05
1.67383e-05
1.67426e-05
1.67356e-05
1.6736e-05
1.67382e-05
1.67432e-05
1.67589e-05
1.67816e-05
1.67851e-05
1.67818e-05
1.67713e-05
1.67316e-05
1.66135e-05
1.63064e-05
1.55845e-05
1.41577e-05
1.20667e-05
9.95264e-06
8.6207e-06
8.22509e-06
8.17885e-06
8.18128e-06
8.19645e-06
8.20396e-06
8.18874e-06
8.19803e-06
8.22767e-06
8.27299e-06
8.32381e-06
8.341e-06
8.35148e-06
8.36196e-06
8.3615e-06
8.32232e-06
8.30611e-06
8.27892e-06
8.21792e-06
8.23473e-06
)
;

boundaryField
{
    sides
    {
        type            calculated;
        value           nonuniform List<scalar> 2(8.23473e-06 1.16103e-05);
    }
    empty
    {
        type            empty;
    }
}


// ************************************************************************* //
