/*--------------------------------*- C++ -*----------------------------------*\
| =========                 |                                                 |
| \\      /  F ield         | OpenFOAM: The Open Source CFD Toolbox           |
|  \\    /   O peration     | Version:  2212                                  |
|   \\  /    A nd           | Website:  www.openfoam.com                      |
|    \\/     M anipulation  |                                                 |
\*---------------------------------------------------------------------------*/
FoamFile
{
    version     2.0;
    format      ascii;
    arch        "LSB;label=32;scalar=64";
    class       volScalarField;
    location    "0.01";
    object      thermo:psi;
}
// * * * * * * * * * * * * * * * * * * * * * * * * * * * * * * * * * * * * * //

dimensions      [0 -2 2 0 0 0 0];

internalField   nonuniform List<scalar> 
100
(
1.16133e-05
1.16153e-05
1.16181e-05
1.16223e-05
1.16283e-05
1.16366e-05
1.16477e-05
1.16622e-05
1.16807e-05
1.17036e-05
1.17314e-05
1.17644e-05
1.18029e-05
1.1847e-05
1.18966e-05
1.19518e-05
1.20124e-05
1.20783e-05
1.21492e-05
1.22251e-05
1.23056e-05
1.23905e-05
1.24797e-05
1.2573e-05
1.26702e-05
1.27711e-05
1.28756e-05
1.29836e-05
1.30951e-05
1.32098e-05
1.33277e-05
1.34488e-05
1.3573e-05
1.37003e-05
1.38306e-05
1.39639e-05
1.41002e-05
1.42394e-05
1.43816e-05
1.45266e-05
1.46744e-05
1.4825e-05
1.49782e-05
1.5134e-05
1.52921e-05
1.54522e-05
1.5614e-05
1.57767e-05
1.59391e-05
1.60994e-05
1.6254e-05
1.63957e-05
1.65092e-05
1.65654e-05
1.65701e-05
1.6566e-05
1.65603e-05
1.65532e-05
1.65446e-05
1.65341e-05
1.65214e-05
1.65056e-05
1.64857e-05
1.64603e-05
1.64267e-05
1.63811e-05
1.63183e-05
1.62307e-05
1.61093e-05
1.59435e-05
1.57231e-05
1.54392e-05
1.50869e-05
1.46664e-05
1.4184e-05
1.36519e-05
1.30866e-05
1.2507e-05
1.19324e-05
1.13801e-05
1.08644e-05
1.03957e-05
9.98038e-06
9.62123e-06
9.31794e-06
9.06773e-06
8.86614e-06
8.70757e-06
8.58588e-06
8.49487e-06
8.42859e-06
8.38167e-06
8.34938e-06
8.32775e-06
8.31328e-06
8.30255e-06
8.29194e-06
8.27879e-06
8.26514e-06
8.25771e-06
)
;

boundaryField
{
    sides
    {
        type            calculated;
        value           nonuniform List<scalar> 2(8.25771e-06 1.16133e-05);
    }
    empty
    {
        type            empty;
    }
}


// ************************************************************************* //
