/*--------------------------------*- C++ -*----------------------------------*\
| =========                 |                                                 |
| \\      /  F ield         | OpenFOAM: The Open Source CFD Toolbox           |
|  \\    /   O peration     | Version:  2312                                  |
|   \\  /    A nd           | Website:  www.openfoam.com                      |
|    \\/     M anipulation  |                                                 |
\*---------------------------------------------------------------------------*/
FoamFile
{
    version     2.0;
    format      ascii;
    arch        "LSB;label=32;scalar=64";
    class       volVectorField;
    location    "0.01";
    object      U;
}
// * * * * * * * * * * * * * * * * * * * * * * * * * * * * * * * * * * * * * //

dimensions      [0 1 -1 0 0 0 0];

internalField   nonuniform List<vector> 
100
(
(0.221562 0 0)
(0.359458 0 0)
(0.567773 0 0)
(0.873233 0 0)
(1.30806 0 0)
(1.90918 0 0)
(2.71671 0 0)
(3.7718 0 0)
(5.1141 0 0)
(6.77922 0 0)
(8.7965 0 0)
(11.1875 0 0)
(13.965 0 0)
(17.1336 0 0)
(20.6897 0 0)
(24.6232 0 0)
(28.9188 0 0)
(33.5574 0 0)
(38.5172 0 0)
(43.7757 0 0)
(49.3096 0 0)
(55.0963 0 0)
(61.1141 0 0)
(67.3425 0 0)
(73.7625 0 0)
(80.3567 0 0)
(87.1091 0 0)
(94.0052 0 0)
(101.032 0 0)
(108.177 0 0)
(115.431 0 0)
(122.783 0 0)
(130.224 0 0)
(137.748 0 0)
(145.345 0 0)
(153.01 0 0)
(160.735 0 0)
(168.515 0 0)
(176.343 0 0)
(184.214 0 0)
(192.12 0 0)
(200.055 0 0)
(208.01 0 0)
(215.976 0 0)
(223.942 0 0)
(231.89 0 0)
(239.801 0 0)
(247.643 0 0)
(255.369 0 0)
(262.9 0 0)
(270.094 0 0)
(276.672 0 0)
(282.02 0 0)
(284.884 0 0)
(285.398 0 0)
(285.511 0 0)
(285.583 0 0)
(285.631 0 0)
(285.661 0 0)
(285.681 0 0)
(285.692 0 0)
(285.698 0 0)
(285.7 0 0)
(285.7 0 0)
(285.697 0 0)
(285.694 0 0)
(285.689 0 0)
(285.685 0 0)
(285.68 0 0)
(285.676 0 0)
(285.673 0 0)
(285.67 0 0)
(285.668 0 0)
(285.667 0 0)
(285.667 0 0)
(285.668 0 0)
(285.669 0 0)
(285.672 0 0)
(285.675 0 0)
(285.68 0 0)
(285.685 0 0)
(285.692 0 0)
(285.699 0 0)
(285.708 0 0)
(285.718 0 0)
(285.729 0 0)
(285.741 0 0)
(285.755 0 0)
(285.77 0 0)
(285.786 0 0)
(285.803 0 0)
(285.821 0 0)
(285.834 0 0)
(285.828 0 0)
(285.751 0 0)
(285.465 0 0)
(284.703 0 0)
(283.204 0 0)
(281.135 0 0)
(279.451 0 0)
)
;

boundaryField
{
    sides
    {
        type            zeroGradient;
    }
    empty
    {
        type            empty;
    }
}


// ************************************************************************* //
