/*--------------------------------*- C++ -*----------------------------------*\
| =========                 |                                                 |
| \\      /  F ield         | OpenFOAM: The Open Source CFD Toolbox           |
|  \\    /   O peration     | Version:  2212                                  |
|   \\  /    A nd           | Website:  www.openfoam.com                      |
|    \\/     M anipulation  |                                                 |
\*---------------------------------------------------------------------------*/
FoamFile
{
    version     2.0;
    format      ascii;
    arch        "LSB;label=32;scalar=64";
    class       volVectorField;
    location    "0.01";
    object      U;
}
// * * * * * * * * * * * * * * * * * * * * * * * * * * * * * * * * * * * * * //

dimensions      [0 1 -1 0 0 0 0];

internalField   nonuniform List<vector> 
100
(
(0.226002 0 0)
(0.366321 0 0)
(0.578055 0 0)
(0.888158 0 0)
(1.32905 0 0)
(1.93781 0 0)
(2.75459 0 0)
(3.82046 0 0)
(5.17487 0 0)
(6.85308 0 0)
(8.88402 0 0)
(11.2887 0 0)
(14.0796 0 0)
(17.2606 0 0)
(20.8279 0 0)
(24.771 0 0)
(29.0743 0 0)
(33.7185 0 0)
(38.6819 0 0)
(43.9418 0 0)
(49.475 0 0)
(55.2589 0 0)
(61.2719 0 0)
(67.4937 0 0)
(73.9053 0 0)
(80.4894 0 0)
(87.2301 0 0)
(94.1131 0 0)
(101.125 0 0)
(108.255 0 0)
(115.492 0 0)
(122.826 0 0)
(130.248 0 0)
(137.752 0 0)
(145.328 0 0)
(152.971 0 0)
(160.674 0 0)
(168.43 0 0)
(176.234 0 0)
(184.08 0 0)
(191.96 0 0)
(199.867 0 0)
(207.794 0 0)
(215.731 0 0)
(223.664 0 0)
(231.579 0 0)
(239.452 0 0)
(247.252 0 0)
(254.927 0 0)
(262.395 0 0)
(269.505 0 0)
(275.959 0 0)
(281.121 0 0)
(283.78 0 0)
(284.236 0 0)
(284.34 0 0)
(284.411 0 0)
(284.467 0 0)
(284.511 0 0)
(284.545 0 0)
(284.569 0 0)
(284.583 0 0)
(284.587 0 0)
(284.587 0 0)
(284.583 0 0)
(284.578 0 0)
(284.572 0 0)
(284.566 0 0)
(284.561 0 0)
(284.556 0 0)
(284.552 0 0)
(284.549 0 0)
(284.546 0 0)
(284.545 0 0)
(284.544 0 0)
(284.545 0 0)
(284.546 0 0)
(284.549 0 0)
(284.552 0 0)
(284.557 0 0)
(284.562 0 0)
(284.569 0 0)
(284.577 0 0)
(284.586 0 0)
(284.596 0 0)
(284.608 0 0)
(284.621 0 0)
(284.635 0 0)
(284.651 0 0)
(284.668 0 0)
(284.686 0 0)
(284.705 0 0)
(284.719 0 0)
(284.712 0 0)
(284.631 0 0)
(284.334 0 0)
(283.556 0 0)
(282.051 0 0)
(280.009 0 0)
(278.369 0 0)
)
;

boundaryField
{
    sides
    {
        type            zeroGradient;
    }
    empty
    {
        type            empty;
    }
}


// ************************************************************************* //
