/*--------------------------------*- C++ -*----------------------------------*\
| =========                 |                                                 |
| \\      /  F ield         | OpenFOAM: The Open Source CFD Toolbox           |
|  \\    /   O peration     | Version:  2212                                  |
|   \\  /    A nd           | Website:  www.openfoam.com                      |
|    \\/     M anipulation  |                                                 |
\*---------------------------------------------------------------------------*/
FoamFile
{
    version     2.0;
    format      ascii;
    arch        "LSB;label=32;scalar=64";
    class       volVectorField;
    location    "0.01";
    object      U;
}
// * * * * * * * * * * * * * * * * * * * * * * * * * * * * * * * * * * * * * //

dimensions      [0 1 -1 0 0 0 0];

internalField   nonuniform List<vector> 
100
(
(3.64024e-13 0 0)
(3.9652e-13 0 0)
(4.1043e-13 0 0)
(4.22977e-13 0 0)
(4.19127e-13 0 0)
(3.15987e-13 0 0)
(2.61695e-13 0 0)
(1.74086e-13 0 0)
(8.56985e-14 0 0)
(-1.18679e-13 0 0)
(-3.84033e-13 0 0)
(-2.61307e-13 0 0)
(3.09331e-11 0 0)
(1.6373e-06 0 0)
(0.0038222 0 0)
(0.41345 0 0)
(5.11723 0 0)
(17.0235 0 0)
(29.8194 0 0)
(40.3206 0 0)
(49.2287 0 0)
(57.4332 0 0)
(65.3792 0 0)
(73.2376 0 0)
(81.0641 0 0)
(88.8756 0 0)
(96.6787 0 0)
(104.477 0 0)
(112.275 0 0)
(120.076 0 0)
(127.881 0 0)
(135.695 0 0)
(143.519 0 0)
(151.356 0 0)
(159.208 0 0)
(167.076 0 0)
(174.961 0 0)
(182.864 0 0)
(190.783 0 0)
(198.719 0 0)
(206.669 0 0)
(214.631 0 0)
(222.601 0 0)
(230.575 0 0)
(238.544 0 0)
(246.497 0 0)
(254.414 0 0)
(262.261 0 0)
(269.97 0 0)
(277.378 0 0)
(283.93 0 0)
(287.937 0 0)
(283.803 0 0)
(283.265 0 0)
(284.587 0 0)
(285.253 0 0)
(285.265 0 0)
(284.858 0 0)
(284.76 0 0)
(284.774 0 0)
(284.702 0 0)
(284.641 0 0)
(284.774 0 0)
(284.87 0 0)
(284.597 0 0)
(284.49 0 0)
(284.465 0 0)
(284.396 0 0)
(284.425 0 0)
(284.521 0 0)
(284.429 0 0)
(284.235 0 0)
(284.26 0 0)
(284.246 0 0)
(284.193 0 0)
(284.272 0 0)
(284.505 0 0)
(284.614 0 0)
(284.627 0 0)
(286.5 0 0)
(288.287 0 0)
(282.031 0 0)
(280.114 0 0)
(280.137 0 0)
(280.427 0 0)
(283.091 0 0)
(288.631 0 0)
(290.375 0 0)
(289.611 0 0)
(286.078 0 0)
(280.686 0 0)
(279.725 0 0)
(279.541 0 0)
(279.395 0 0)
(280.996 0 0)
(288.056 0 0)
(292.35 0 0)
(289.955 0 0)
(283.184 0 0)
(272.74 0 0)
)
;

boundaryField
{
    sides
    {
        type            zeroGradient;
    }
    empty
    {
        type            empty;
    }
}


// ************************************************************************* //
