/*--------------------------------*- C++ -*----------------------------------*\
| =========                 |                                                 |
| \\      /  F ield         | OpenFOAM: The Open Source CFD Toolbox           |
|  \\    /   O peration     | Version:  2312                                  |
|   \\  /    A nd           | Website:  www.openfoam.com                      |
|    \\/     M anipulation  |                                                 |
\*---------------------------------------------------------------------------*/
FoamFile
{
    version     2.0;
    format      ascii;
    arch        "LSB;label=32;scalar=64";
    class       volVectorField;
    location    "0.01";
    object      U;
}
// * * * * * * * * * * * * * * * * * * * * * * * * * * * * * * * * * * * * * //

dimensions      [0 1 -1 0 0 0 0];

internalField   nonuniform List<vector> 
100
(
(197.988 0 0)
(204.828 0 0)
(211.597 0 0)
(218.398 0 0)
(225.23 0 0)
(232.092 0 0)
(238.982 0 0)
(245.9 0 0)
(252.844 0 0)
(259.812 0 0)
(266.805 0 0)
(273.82 0 0)
(280.857 0 0)
(287.914 0 0)
(294.991 0 0)
(302.085 0 0)
(309.197 0 0)
(316.326 0 0)
(323.47 0 0)
(330.628 0 0)
(337.8 0 0)
(344.984 0 0)
(352.18 0 0)
(359.386 0 0)
(366.6 0 0)
(373.822 0 0)
(381.048 0 0)
(388.278 0 0)
(395.51 0 0)
(402.74 0 0)
(409.966 0 0)
(417.183 0 0)
(424.389 0 0)
(431.578 0 0)
(438.742 0 0)
(445.876 0 0)
(452.968 0 0)
(460.006 0 0)
(466.974 0 0)
(473.85 0 0)
(480.606 0 0)
(487.205 0 0)
(493.594 0 0)
(499.704 0 0)
(505.439 0 0)
(510.678 0 0)
(515.265 0 0)
(519.035 0 0)
(521.854 0 0)
(523.694 0 0)
(524.699 0 0)
(525.153 0 0)
(525.343 0 0)
(525.434 0 0)
(525.486 0 0)
(525.513 0 0)
(525.523 0 0)
(525.522 0 0)
(525.512 0 0)
(525.498 0 0)
(525.48 0 0)
(525.461 0 0)
(525.441 0 0)
(525.422 0 0)
(525.404 0 0)
(525.387 0 0)
(525.371 0 0)
(525.356 0 0)
(525.342 0 0)
(525.329 0 0)
(525.317 0 0)
(525.306 0 0)
(525.295 0 0)
(525.285 0 0)
(525.275 0 0)
(525.262 0 0)
(525.239 0 0)
(525.192 0 0)
(525.093 0 0)
(524.896 0 0)
(524.533 0 0)
(523.932 0 0)
(523.049 0 0)
(521.906 0 0)
(520.614 0 0)
(519.337 0 0)
(518.225 0 0)
(517.353 0 0)
(516.7 0 0)
(516.172 0 0)
(515.647 0 0)
(515.011 0 0)
(514.176 0 0)
(513.087 0 0)
(511.727 0 0)
(510.113 0 0)
(508.3 0 0)
(506.368 0 0)
(504.42 0 0)
(504.161 0 0)
)
;

boundaryField
{
    sides
    {
        type            zeroGradient;
    }
    empty
    {
        type            empty;
    }
}


// ************************************************************************* //
