/*--------------------------------*- C++ -*----------------------------------*\
| =========                 |                                                 |
| \\      /  F ield         | OpenFOAM: The Open Source CFD Toolbox           |
|  \\    /   O peration     | Version:  2312                                  |
|   \\  /    A nd           | Website:  www.openfoam.com                      |
|    \\/     M anipulation  |                                                 |
\*---------------------------------------------------------------------------*/
FoamFile
{
    version     2.0;
    format      ascii;
    arch        "LSB;label=32;scalar=64";
    class       volScalarField;
    location    "0.022";
    object      p;
}
// * * * * * * * * * * * * * * * * * * * * * * * * * * * * * * * * * * * * * //

dimensions      [1 -1 -2 0 0 0 0];

internalField   nonuniform List<scalar> 
100
(
62750.7
62119.1
61240.7
60441.9
59621.4
58812.5
58005.6
57204.1
56407.4
55616.4
54830.8
54052.9
53278.4
52519.4
51749.4
51025.9
50235.2
49588.9
48722.1
48219.1
47216.8
46888.1
45774.7
45527.2
44454.5
44116.5
43224.5
42727.7
42004.9
41415.9
40777.2
40170
39563.7
38967.7
38379.9
37800.6
37229.9
36668
36115.3
35572.1
35038.9
34516.2
34005.1
33506.4
33021.3
32551.2
32097.9
31663.2
31249.4
30859
30494.6
30159
29854.8
29584.3
29349.3
29150.6
28987.8
28858.7
28760.3
28687.7
28637.6
28602.3
28583
28563.8
28565.5
28542.6
28572.1
28518
28598.6
28475.9
28647.1
28422.4
28703.5
28375.1
28729
28367.4
28709.7
28418
28654.4
28486.1
28587.7
28562.3
28560.2
28710.8
28589.8
29018.1
28679.2
29606.5
28863.5
30515
29129.5
31534.1
29551.3
32682.3
30987.3
35002.5
34781
38532.8
39142.6
39899.7
)
;

boundaryField
{
    sides
    {
        type            zeroGradient;
    }
    empty
    {
        type            empty;
    }
}


// ************************************************************************* //
