/*--------------------------------*- C++ -*----------------------------------*\
| =========                 |                                                 |
| \\      /  F ield         | OpenFOAM: The Open Source CFD Toolbox           |
|  \\    /   O peration     | Version:  2312                                  |
|   \\  /    A nd           | Website:  www.openfoam.com                      |
|    \\/     M anipulation  |                                                 |
\*---------------------------------------------------------------------------*/
FoamFile
{
    version     2.0;
    format      ascii;
    arch        "LSB;label=32;scalar=64";
    class       volScalarField;
    location    "0.022";
    object      T;
}
// * * * * * * * * * * * * * * * * * * * * * * * * * * * * * * * * * * * * * //

dimensions      [0 0 0 1 0 0 0];

internalField   nonuniform List<scalar> 
100
(
270.942
269.458
267.087
264.985
262.881
260.942
259.167
257.568
256.125
254.811
253.592
252.449
251.337
250.296
249.183
248.274
246.99
246.415
244.642
244.759
242.154
243.136
239.843
241.147
238.04
238.698
236.525
236.234
234.848
234.027
232.959
231.987
230.989
230.002
229.017
228.034
227.055
226.081
225.112
224.149
223.192
222.243
221.305
220.379
219.469
218.576
217.705
216.858
216.043
215.266
214.532
213.847
213.218
212.65
212.151
211.724
211.374
211.096
210.882
210.719
210.614
210.536
210.523
210.458
210.539
210.389
210.677
210.244
210.931
209.926
211.358
209.604
211.867
209.318
211.96
209.293
211.818
209.928
211.57
210.45
210.877
210.731
210.554
211.871
210.542
213.369
209.291
215.229
207.795
219.458
207.634
224.227
207.122
225.491
208.27
227.533
218.949
234.718
234.578
233.746
)
;

boundaryField
{
    sides
    {
        type            zeroGradient;
    }
    empty
    {
        type            empty;
    }
}


// ************************************************************************* //
