/*--------------------------------*- C++ -*----------------------------------*\
| =========                 |                                                 |
| \\      /  F ield         | OpenFOAM: The Open Source CFD Toolbox           |
|  \\    /   O peration     | Version:  2312                                  |
|   \\  /    A nd           | Website:  www.openfoam.com                      |
|    \\/     M anipulation  |                                                 |
\*---------------------------------------------------------------------------*/
FoamFile
{
    version     2.0;
    format      ascii;
    arch        "LSB;label=32;scalar=64";
    class       volScalarField;
    location    "0.022";
    object      thermo:e;
}
// * * * * * * * * * * * * * * * * * * * * * * * * * * * * * * * * * * * * * //

dimensions      [0 2 -2 0 0 0 0];

internalField   nonuniform List<scalar> 
100
(
194861
193794
192089
190577
189064
187670
186393
185243
184205
183260
182383
181562
180762
180013
179212
178559
177636
177221
175946
176030
174157
174864
172495
173433
171198
171672
170108
169900
168902
168312
167544
166845
166128
165417
164709
164002
163298
162597
161900
161208
160520
159837
159163
158497
157842
157200
156573
155965
155378
154819
154291
153799
153346
152938
152579
152272
152020
151820
151666
151549
151473
151417
151408
151362
151419
151311
151519
151208
151701
150979
152009
150747
152375
150541
152442
150524
152340
150980
152161
151356
151663
151558
151431
152378
151422
153455
150522
154793
149446
157834
149330
161264
148962
162173
149788
163642
157468
168809
168708
168110
)
;

boundaryField
{
    sides
    {
        type            zeroGradient;
    }
    empty
    {
        type            empty;
    }
}


// ************************************************************************* //
