/*--------------------------------*- C++ -*----------------------------------*\
| =========                 |                                                 |
| \\      /  F ield         | OpenFOAM: The Open Source CFD Toolbox           |
|  \\    /   O peration     | Version:  2312                                  |
|   \\  /    A nd           | Website:  www.openfoam.com                      |
|    \\/     M anipulation  |                                                 |
\*---------------------------------------------------------------------------*/
FoamFile
{
    version     2.0;
    format      ascii;
    arch        "LSB;label=32;scalar=64";
    class       volVectorField;
    location    "0.022";
    object      U;
}
// * * * * * * * * * * * * * * * * * * * * * * * * * * * * * * * * * * * * * //

dimensions      [0 1 -1 0 0 0 0];

internalField   nonuniform List<vector> 
100
(
(87.9292 0 0)
(91.3782 0 0)
(95.2415 0 0)
(98.9478 0 0)
(102.677 0 0)
(106.383 0 0)
(110.095 0 0)
(113.82 0 0)
(117.564 0 0)
(121.329 0 0)
(125.114 0 0)
(128.919 0 0)
(132.732 0 0)
(136.571 0 0)
(140.39 0 0)
(144.275 0 0)
(148.063 0 0)
(152.026 0 0)
(155.743 0 0)
(159.796 0 0)
(163.475 0 0)
(167.514 0 0)
(171.316 0 0)
(175.162 0 0)
(179.2 0 0)
(182.862 0 0)
(186.984 0 0)
(190.675 0 0)
(194.69 0 0)
(198.492 0 0)
(202.401 0 0)
(206.249 0 0)
(210.105 0 0)
(213.941 0 0)
(217.761 0 0)
(221.56 0 0)
(225.334 0 0)
(229.079 0 0)
(232.79 0 0)
(236.462 0 0)
(240.09 0 0)
(243.665 0 0)
(247.18 0 0)
(250.627 0 0)
(253.995 0 0)
(257.274 0 0)
(260.448 0 0)
(263.502 0 0)
(266.418 0 0)
(269.176 0 0)
(271.755 0 0)
(274.133 0 0)
(276.287 0 0)
(278.198 0 0)
(279.854 0 0)
(281.247 0 0)
(282.384 0 0)
(283.28 0 0)
(283.961 0 0)
(284.454 0 0)
(284.8 0 0)
(285.028 0 0)
(285.186 0 0)
(285.268 0 0)
(285.347 0 0)
(285.339 0 0)
(285.426 0 0)
(285.349 0 0)
(285.485 0 0)
(285.308 0 0)
(285.498 0 0)
(285.297 0 0)
(285.514 0 0)
(285.391 0 0)
(285.43 0 0)
(285.432 0 0)
(285.265 0 0)
(285.499 0 0)
(285.305 0 0)
(285.57 0 0)
(285.243 0 0)
(285.269 0 0)
(284.751 0 0)
(284.711 0 0)
(283.834 0 0)
(283.58 0 0)
(281.554 0 0)
(280.703 0 0)
(277.409 0 0)
(276.497 0 0)
(273.118 0 0)
(272.219 0 0)
(268.555 0 0)
(264.395 0 0)
(256.884 0 0)
(245.299 0 0)
(234.091 0 0)
(221.374 0 0)
(217.552 0 0)
(214.283 0 0)
)
;

boundaryField
{
    sides
    {
        type            mywaveTransmissive;
        gamma           1.4;
        value           nonuniform List<vector> 2((213.961 0 0) (86.5073 0 0));
    }
    empty
    {
        type            empty;
    }
}


// ************************************************************************* //
