/*--------------------------------*- C++ -*----------------------------------*\
| =========                 |                                                 |
| \\      /  F ield         | OpenFOAM: The Open Source CFD Toolbox           |
|  \\    /   O peration     | Version:  2312                                  |
|   \\  /    A nd           | Website:  www.openfoam.com                      |
|    \\/     M anipulation  |                                                 |
\*---------------------------------------------------------------------------*/
FoamFile
{
    version     2.0;
    format      ascii;
    arch        "LSB;label=32;scalar=64";
    class       volScalarField;
    location    "3e-05";
    object      p;
}
// * * * * * * * * * * * * * * * * * * * * * * * * * * * * * * * * * * * * * //

dimensions      [1 -1 -2 0 0 0 0];

internalField   nonuniform List<scalar> 
500
(
1.36345e+06
1.36438e+06
1.36495e+06
1.36534e+06
1.36564e+06
1.36589e+06
1.3661e+06
1.36628e+06
1.36645e+06
1.3666e+06
1.36674e+06
1.36688e+06
1.36701e+06
1.36714e+06
1.36726e+06
1.36738e+06
1.3675e+06
1.36761e+06
1.36773e+06
1.36785e+06
1.36796e+06
1.36808e+06
1.3682e+06
1.36832e+06
1.36844e+06
1.36857e+06
1.36869e+06
1.36882e+06
1.36896e+06
1.36909e+06
1.36923e+06
1.36937e+06
1.36952e+06
1.36967e+06
1.36983e+06
1.36999e+06
1.37016e+06
1.37033e+06
1.37051e+06
1.37069e+06
1.37088e+06
1.37108e+06
1.37128e+06
1.37149e+06
1.37171e+06
1.37194e+06
1.37218e+06
1.37242e+06
1.37268e+06
1.37295e+06
1.37323e+06
1.37352e+06
1.37382e+06
1.37413e+06
1.37446e+06
1.3748e+06
1.37516e+06
1.37554e+06
1.37593e+06
1.37634e+06
1.37677e+06
1.37722e+06
1.37769e+06
1.37818e+06
1.37869e+06
1.37924e+06
1.3798e+06
1.3804e+06
1.38103e+06
1.38169e+06
1.38238e+06
1.38311e+06
1.38387e+06
1.38468e+06
1.38553e+06
1.38643e+06
1.38737e+06
1.38836e+06
1.38941e+06
1.39052e+06
1.39169e+06
1.39293e+06
1.39424e+06
1.39562e+06
1.39708e+06
1.39863e+06
1.40027e+06
1.40201e+06
1.40385e+06
1.4058e+06
1.40787e+06
1.41007e+06
1.4124e+06
1.41488e+06
1.41751e+06
1.42031e+06
1.42329e+06
1.42646e+06
1.42984e+06
1.43343e+06
1.43726e+06
1.44135e+06
1.4457e+06
1.45035e+06
1.45532e+06
1.46062e+06
1.46628e+06
1.47234e+06
1.47882e+06
1.48575e+06
1.49318e+06
1.50113e+06
1.50966e+06
1.51881e+06
1.52863e+06
1.53918e+06
1.55052e+06
1.56271e+06
1.57583e+06
1.58996e+06
1.60519e+06
1.62162e+06
1.63937e+06
1.65854e+06
1.67929e+06
1.70175e+06
1.72611e+06
1.75255e+06
1.78128e+06
1.81255e+06
1.84663e+06
1.88382e+06
1.92448e+06
1.969e+06
2.01783e+06
2.07146e+06
2.13046e+06
2.19541e+06
2.2667e+06
2.3449e+06
2.43071e+06
2.52458e+06
2.6266e+06
2.73621e+06
2.85158e+06
2.96866e+06
3.0795e+06
3.16975e+06
3.21498e+06
3.17654e+06
2.99953e+06
2.62106e+06
2.00527e+06
1.22265e+06
530694
181214
106543
100364
100017
99998.6
99997.6
99997.6
99997.6
99997.6
99997.6
99997.6
99997.6
99997.6
99997.6
99997.6
99997.6
99997.6
99997.6
99997.6
99997.6
99997.6
99997.6
99997.6
99997.6
99997.6
99997.6
99997.6
99997.6
99997.6
99997.6
99997.6
99997.6
99997.6
99997.6
99997.6
99997.6
99997.6
99997.6
99997.6
99997.6
99997.6
99997.6
99997.6
99997.6
99997.6
99997.6
99997.6
99997.6
99997.6
99997.6
99997.6
99997.6
99997.6
99997.6
99997.6
99997.6
99997.6
99997.6
99997.6
99997.6
99997.6
99997.6
99997.6
99997.6
99997.6
99997.6
99997.6
99997.6
99997.6
99997.6
99997.6
99997.6
99997.6
99997.6
99997.6
99997.6
99997.6
99997.6
99997.6
99997.6
99997.6
99997.6
99997.6
99997.6
99997.6
99997.6
99997.6
99997.6
99997.6
99997.6
99997.6
99997.6
99997.6
99997.6
99997.6
99997.6
99997.6
99997.6
99997.6
99997.6
99997.6
99997.6
99997.6
99997.6
99997.6
99997.6
99997.6
99997.6
99997.6
99997.6
99997.6
99997.6
99997.6
99997.6
99997.6
99997.6
99997.6
99997.6
99997.6
99997.6
99997.6
99997.6
99997.6
99997.6
99997.6
99997.6
99997.6
99997.6
99997.6
99997.6
99997.6
99997.6
99997.6
99997.6
99997.6
99997.6
99997.6
99997.6
99997.6
99997.6
99997.6
99997.6
99997.6
99997.6
99997.6
99997.6
99997.6
99997.6
99997.6
99997.6
99997.6
99997.6
99997.6
99997.6
99997.6
99997.6
99997.6
99997.6
99997.6
99997.6
99997.6
99997.6
99997.6
99997.6
99997.6
99997.6
99997.6
99997.6
99997.6
99997.6
99997.6
99997.6
99997.6
99997.6
99997.6
99997.6
99997.6
99997.6
99997.6
99997.6
99997.6
99997.6
99997.6
99997.6
99997.6
99997.6
99997.6
99997.6
99997.6
99997.6
99997.6
99997.6
99997.6
99997.6
99997.6
99997.6
99997.6
99997.6
99997.6
99997.6
99997.6
99997.6
99997.6
99997.6
99997.6
99997.6
99997.6
99997.6
99997.6
99997.6
99997.6
99997.6
99997.6
99997.6
99997.6
99997.6
99997.6
99997.6
99997.6
99997.6
99997.6
99997.6
99997.6
99997.6
99997.6
99997.6
99997.6
99997.6
99997.6
99997.6
99997.6
99997.6
99997.6
99997.6
99997.6
99997.6
99997.6
99997.6
99997.6
99997.6
99997.6
99997.6
99997.6
99997.6
99997.6
99997.6
99997.6
99997.6
99997.6
99997.6
99997.6
99997.6
99997.6
99997.6
99997.6
99997.6
99997.6
99997.6
99997.6
99997.6
99997.6
99997.6
99997.6
99997.6
99997.6
99997.6
99997.6
99997.6
99997.6
99997.6
99997.6
99997.6
99997.6
99997.6
99997.6
99997.6
99997.6
99997.6
99997.6
99997.6
99997.6
99997.6
99997.6
99997.6
99997.6
99997.6
99997.6
99997.6
99997.6
99997.6
99997.6
99997.6
99997.6
99997.6
99997.6
99997.6
99997.6
99997.6
99997.6
99997.6
99997.6
99997.6
99997.6
99997.6
99997.6
99997.6
99997.6
99997.6
99997.6
99997.6
99997.6
99997.6
99997.6
99997.6
99997.6
99997.6
99997.6
99997.6
99997.6
99997.6
99997.6
99997.6
99997.6
99997.6
99997.6
99997.6
99997.6
99997.6
99997.6
99997.6
99997.6
99997.6
99997.6
99997.6
99997.6
99997.6
99997.6
99997.6
99997.6
99997.6
99997.6
99997.6
99997.6
99997.6
99997.6
)
;

boundaryField
{
    wedge0
    {
        type            wedge;
    }
    wedge1
    {
        type            wedge;
    }
    wedge2
    {
        type            wedge;
    }
    wedge3
    {
        type            wedge;
    }
    outlet
    {
        type            zeroGradient;
    }
    defaultFaces
    {
        type            empty;
    }
}


// ************************************************************************* //
