/*--------------------------------*- C++ -*----------------------------------*\
| =========                 |                                                 |
| \\      /  F ield         | OpenFOAM: The Open Source CFD Toolbox           |
|  \\    /   O peration     | Version:  2312                                  |
|   \\  /    A nd           | Website:  www.openfoam.com                      |
|    \\/     M anipulation  |                                                 |
\*---------------------------------------------------------------------------*/
FoamFile
{
    version     2.0;
    format      ascii;
    arch        "LSB;label=32;scalar=64";
    class       volScalarField;
    location    "3e-05";
    object      rho;
}
// * * * * * * * * * * * * * * * * * * * * * * * * * * * * * * * * * * * * * //

dimensions      [1 -3 0 0 0 0 0];

internalField   nonuniform List<scalar> 
500
(
0.00848835
0.00849762
0.00851049
0.00852774
0.00854979
0.00857683
0.00860901
0.00864642
0.00868916
0.00873731
0.00879098
0.00885027
0.00891529
0.00898616
0.00906301
0.00914598
0.00923521
0.00933088
0.00943315
0.00954221
0.00965827
0.00978154
0.00991224
0.0100506
0.010197
0.0103515
0.0105146
0.0106865
0.0108676
0.0110582
0.0112587
0.0114696
0.0116911
0.0119238
0.0121683
0.0124248
0.0126941
0.0129767
0.0132731
0.0135841
0.0139103
0.0142525
0.0146113
0.0149876
0.0153823
0.0157963
0.0162306
0.0166861
0.017164
0.0176654
0.0181916
0.0187438
0.0193234
0.0199319
0.0205709
0.0212419
0.0219469
0.0226875
0.0234659
0.024284
0.0251442
0.0260489
0.0270005
0.0280017
0.0290554
0.0301647
0.0313328
0.0325631
0.0338594
0.0352254
0.0366653
0.0381837
0.0397852
0.0414747
0.0432578
0.0451399
0.0471273
0.0492264
0.0514441
0.0537876
0.0562649
0.0588843
0.0616547
0.0645855
0.067687
0.0709698
0.0744455
0.0781264
0.0820256
0.0861571
0.0905358
0.0951778
0.1001
0.105321
0.110859
0.116737
0.122975
0.129599
0.136633
0.144105
0.152044
0.160481
0.169451
0.17899
0.189137
0.199933
0.211425
0.22366
0.236693
0.25058
0.265383
0.281169
0.298011
0.31599
0.335191
0.35571
0.377651
0.401128
0.426266
0.453205
0.482097
0.513112
0.546439
0.582287
0.620893
0.66252
0.707463
0.756056
0.808678
0.865756
0.927778
0.995301
1.06896
1.1495
1.23775
1.33469
1.44144
1.55927
1.68844
1.82944
1.98442
2.15535
2.344
2.55177
2.77918
3.02496
3.28439
3.54639
3.78908
3.97354
4.03779
3.8981
3.47539
2.76967
1.96423
1.39653
1.19383
1.16353
1.16115
1.16101
1.161
1.161
1.161
1.161
1.161
1.161
1.161
1.161
1.161
1.161
1.161
1.161
1.161
1.161
1.161
1.161
1.161
1.161
1.161
1.161
1.161
1.161
1.161
1.161
1.161
1.161
1.161
1.161
1.161
1.161
1.161
1.161
1.161
1.161
1.161
1.161
1.161
1.161
1.161
1.161
1.161
1.161
1.161
1.161
1.161
1.161
1.161
1.161
1.161
1.161
1.161
1.161
1.161
1.161
1.161
1.161
1.161
1.161
1.161
1.161
1.161
1.161
1.161
1.161
1.161
1.161
1.161
1.161
1.161
1.161
1.161
1.161
1.161
1.161
1.161
1.161
1.161
1.161
1.161
1.161
1.161
1.161
1.161
1.161
1.161
1.161
1.161
1.161
1.161
1.161
1.161
1.161
1.161
1.161
1.161
1.161
1.161
1.161
1.161
1.161
1.161
1.161
1.161
1.161
1.161
1.161
1.161
1.161
1.161
1.161
1.161
1.161
1.161
1.161
1.161
1.161
1.161
1.161
1.161
1.161
1.161
1.161
1.161
1.161
1.161
1.161
1.161
1.161
1.161
1.161
1.161
1.161
1.161
1.161
1.161
1.161
1.161
1.161
1.161
1.161
1.161
1.161
1.161
1.161
1.161
1.161
1.161
1.161
1.161
1.161
1.161
1.161
1.161
1.161
1.161
1.161
1.161
1.161
1.161
1.161
1.161
1.161
1.161
1.161
1.161
1.161
1.161
1.161
1.161
1.161
1.161
1.161
1.161
1.161
1.161
1.161
1.161
1.161
1.161
1.161
1.161
1.161
1.161
1.161
1.161
1.161
1.161
1.161
1.161
1.161
1.161
1.161
1.161
1.161
1.161
1.161
1.161
1.161
1.161
1.161
1.161
1.161
1.161
1.161
1.161
1.161
1.161
1.161
1.161
1.161
1.161
1.161
1.161
1.161
1.161
1.161
1.161
1.161
1.161
1.161
1.161
1.161
1.161
1.161
1.161
1.161
1.161
1.161
1.161
1.161
1.161
1.161
1.161
1.161
1.161
1.161
1.161
1.161
1.161
1.161
1.161
1.161
1.161
1.161
1.161
1.161
1.161
1.161
1.161
1.161
1.161
1.161
1.161
1.161
1.161
1.161
1.161
1.161
1.161
1.161
1.161
1.161
1.161
1.161
1.161
1.161
1.161
1.161
1.161
1.161
1.161
1.161
1.161
1.161
1.161
1.161
1.161
1.161
1.161
1.161
1.161
1.161
1.161
1.161
1.161
1.161
1.161
1.161
1.161
1.161
1.161
1.161
1.161
1.161
1.161
1.161
1.161
1.161
1.161
1.161
1.161
1.161
1.161
1.161
1.161
1.161
1.161
1.161
1.161
1.161
1.161
1.161
1.161
1.161
1.161
1.161
1.161
1.161
1.161
1.161
1.161
1.161
1.161
1.161
1.161
1.161
1.161
1.161
1.161
1.161
1.161
1.161
1.161
1.161
1.161
1.161
1.161
1.161
1.161
1.161
)
;

boundaryField
{
    wedge0
    {
        type            wedge;
    }
    wedge1
    {
        type            wedge;
    }
    wedge2
    {
        type            wedge;
    }
    wedge3
    {
        type            wedge;
    }
    outlet
    {
        type            zeroGradient;
    }
    defaultFaces
    {
        type            empty;
    }
}


// ************************************************************************* //
