/*--------------------------------*- C++ -*----------------------------------*\
| =========                 |                                                 |
| \\      /  F ield         | OpenFOAM: The Open Source CFD Toolbox           |
|  \\    /   O peration     | Version:  2312                                  |
|   \\  /    A nd           | Website:  www.openfoam.com                      |
|    \\/     M anipulation  |                                                 |
\*---------------------------------------------------------------------------*/
FoamFile
{
    version     2.0;
    format      ascii;
    arch        "LSB;label=32;scalar=64";
    class       volScalarField;
    location    "3e-05";
    object      T;
}
// * * * * * * * * * * * * * * * * * * * * * * * * * * * * * * * * * * * * * //

dimensions      [0 0 0 1 0 0 0];

internalField   nonuniform List<scalar> 
500
(
559475
559244
558633
557663
556347
554692
552704
550387
547746
544789
541519
537945
534072
529909
525463
520742
515754
510510
505019
499289
493331
487156
480775
474196
467433
460496
453396
446144
438753
431233
423596
415853
408016
400096
392105
384053
375951
367811
359643
351456
343262
335070
326890
318731
310602
302512
294469
286482
278558
270704
262927
255235
247634
240129
232725
225429
218246
211178
204232
197410
190715
184152
177723
171429
165274
159259
153385
147653
142065
136621
131321
126166
121154
116287
111562
106979
102538
98235.6
94072
90045
86152.8
82393.6
78765.2
75265.5
71892.1
68642.6
65514.5
62505.2
59612.1
56832.4
54163.4
51602.2
49145.9
46791.8
44536.7
42378
40312.5
38337.4
36449.8
34646.8
32925.5
31283
29716.6
28223.4
26800.7
25445.8
24156
22928.9
21761.7
20652.1
19597.6
18595.9
17644.6
16741.5
15884.5
15071.5
14300.4
13569.3
12876.3
12219.5
11597.3
11007.8
10449.6
9920.94
9420.45
8946.67
8498.23
8073.83
7672.21
7292.2
6932.65
6592.48
6270.67
5966.24
5678.24
5405.79
5148.02
4904.1
4675.99
4464.48
4266.42
4079.76
3903.02
3734.84
3573.83
3418.25
3265.8
3113.16
2955.35
2784.45
2587.45
2342.01
2009.71
1537.58
941.059
451.964
310.846
300.445
300.02
300.001
300
300
300
300
300
300
300
300
300
300
300
300
300
300
300
300
300
300
300
300
300
300
300
300
300
300
300
300
300
300
300
300
300
300
300
300
300
300
300
300
300
300
300
300
300
300
300
300
300
300
300
300
300
300
300
300
300
300
300
300
300
300
300
300
300
300
300
300
300
300
300
300
300
300
300
300
300
300
300
300
300
300
300
300
300
300
300
300
300
300
300
300
300
300
300
300
300
300
300
300
300
300
300
300
300
300
300
300
300
300
300
300
300
300
300
300
300
300
300
300
300
300
300
300
300
300
300
300
300
300
300
300
300
300
300
300
300
300
300
300
300
300
300
300
300
300
300
300
300
300
300
300
300
300
300
300
300
300
300
300
300
300
300
300
300
300
300
300
300
300
300
300
300
300
300
300
300
300
300
300
300
300
300
300
300
300
300
300
300
300
300
300
300
300
300
300
300
300
300
300
300
300
300
300
300
300
300
300
300
300
300
300
300
300
300
300
300
300
300
300
300
300
300
300
300
300
300
300
300
300
300
300
300
300
300
300
300
300
300
300
300
300
300
300
300
300
300
300
300
300
300
300
300
300
300
300
300
300
300
300
300
300
300
300
300
300
300
300
300
300
300
300
300
300
300
300
300
300
300
300
300
300
300
300
300
300
300
300
300
300
300
300
300
300
300
300
300
300
300
300
300
300
300
300
300
300
300
300
300
300
300
300
300
300
300
300
300
300
300
300
300
300
300
300
300
300
300
300
300
300
300
300
300
300
300
300
300
300
300
300
)
;

boundaryField
{
    wedge0
    {
        type            wedge;
    }
    wedge1
    {
        type            wedge;
    }
    wedge2
    {
        type            wedge;
    }
    wedge3
    {
        type            wedge;
    }
    outlet
    {
        type            zeroGradient;
    }
    defaultFaces
    {
        type            empty;
    }
}


// ************************************************************************* //
