/*--------------------------------*- C++ -*----------------------------------*\
| =========                 |                                                 |
| \\      /  F ield         | OpenFOAM: The Open Source CFD Toolbox           |
|  \\    /   O peration     | Version:  2312                                  |
|   \\  /    A nd           | Website:  www.openfoam.com                      |
|    \\/     M anipulation  |                                                 |
\*---------------------------------------------------------------------------*/
FoamFile
{
    version     2.0;
    format      ascii;
    arch        "LSB;label=32;scalar=64";
    class       volScalarField;
    location    "3e-05";
    object      thermo:e;
}
// * * * * * * * * * * * * * * * * * * * * * * * * * * * * * * * * * * * * * //

dimensions      [0 2 -2 0 0 0 0];

internalField   nonuniform List<scalar> 
500
(
4.01535e+08
4.01369e+08
4.00931e+08
4.00235e+08
3.99291e+08
3.98103e+08
3.96675e+08
3.95012e+08
3.93118e+08
3.90995e+08
3.88648e+08
3.86083e+08
3.83304e+08
3.80316e+08
3.77125e+08
3.73736e+08
3.70157e+08
3.66393e+08
3.62452e+08
3.5834e+08
3.54064e+08
3.49632e+08
3.45052e+08
3.40331e+08
3.35477e+08
3.30498e+08
3.25402e+08
3.20198e+08
3.14893e+08
3.09496e+08
3.04015e+08
2.98458e+08
2.92833e+08
2.87149e+08
2.81414e+08
2.75635e+08
2.6982e+08
2.63978e+08
2.58115e+08
2.5224e+08
2.46359e+08
2.4048e+08
2.34609e+08
2.28753e+08
2.22919e+08
2.17113e+08
2.11341e+08
2.05608e+08
1.99921e+08
1.94284e+08
1.88703e+08
1.83182e+08
1.77727e+08
1.7234e+08
1.67027e+08
1.61791e+08
1.56635e+08
1.51563e+08
1.46577e+08
1.41681e+08
1.36876e+08
1.32166e+08
1.27552e+08
1.23035e+08
1.18617e+08
1.143e+08
1.10084e+08
1.05971e+08
1.0196e+08
9.8053e+07
9.42493e+07
9.05492e+07
8.69525e+07
8.34589e+07
8.0068e+07
7.6779e+07
7.35912e+07
7.05037e+07
6.75155e+07
6.46253e+07
6.18319e+07
5.91339e+07
5.65298e+07
5.4018e+07
5.15969e+07
4.92648e+07
4.70197e+07
4.486e+07
4.27836e+07
4.07886e+07
3.88731e+07
3.70349e+07
3.5272e+07
3.35824e+07
3.1964e+07
3.04147e+07
2.89323e+07
2.75148e+07
2.616e+07
2.4866e+07
2.36306e+07
2.24518e+07
2.13276e+07
2.02559e+07
1.92348e+07
1.82624e+07
1.73368e+07
1.6456e+07
1.56184e+07
1.4822e+07
1.40652e+07
1.33463e+07
1.26635e+07
1.20154e+07
1.14003e+07
1.08168e+07
1.02634e+07
9.73871e+06
9.24133e+06
8.76997e+06
8.32337e+06
7.90032e+06
7.49966e+06
7.12026e+06
6.76106e+06
6.42102e+06
6.09918e+06
5.79459e+06
5.50635e+06
5.23361e+06
4.97556e+06
4.73143e+06
4.50046e+06
4.28197e+06
4.07527e+06
3.87974e+06
3.69473e+06
3.51968e+06
3.35596e+06
3.20415e+06
3.06201e+06
2.92805e+06
2.80119e+06
2.6805e+06
2.56494e+06
2.45328e+06
2.34386e+06
2.23432e+06
2.12105e+06
1.9984e+06
1.85702e+06
1.68086e+06
1.44237e+06
1.10352e+06
675398
324375
223094
215629
215324
215311
215310
215310
215310
215310
215310
215310
215310
215310
215310
215310
215310
215310
215310
215310
215310
215310
215310
215310
215310
215310
215310
215310
215310
215310
215310
215310
215310
215310
215310
215310
215310
215310
215310
215310
215310
215310
215310
215310
215310
215310
215310
215310
215310
215310
215310
215310
215310
215310
215310
215310
215310
215310
215310
215310
215310
215310
215310
215310
215310
215310
215310
215310
215310
215310
215310
215310
215310
215310
215310
215310
215310
215310
215310
215310
215310
215310
215310
215310
215310
215310
215310
215310
215310
215310
215310
215310
215310
215310
215310
215310
215310
215310
215310
215310
215310
215310
215310
215310
215310
215310
215310
215310
215310
215310
215310
215310
215310
215310
215310
215310
215310
215310
215310
215310
215310
215310
215310
215310
215310
215310
215310
215310
215310
215310
215310
215310
215310
215310
215310
215310
215310
215310
215310
215310
215310
215310
215310
215310
215310
215310
215310
215310
215310
215310
215310
215310
215310
215310
215310
215310
215310
215310
215310
215310
215310
215310
215310
215310
215310
215310
215310
215310
215310
215310
215310
215310
215310
215310
215310
215310
215310
215310
215310
215310
215310
215310
215310
215310
215310
215310
215310
215310
215310
215310
215310
215310
215310
215310
215310
215310
215310
215310
215310
215310
215310
215310
215310
215310
215310
215310
215310
215310
215310
215310
215310
215310
215310
215310
215310
215310
215310
215310
215310
215310
215310
215310
215310
215310
215310
215310
215310
215310
215310
215310
215310
215310
215310
215310
215310
215310
215310
215310
215310
215310
215310
215310
215310
215310
215310
215310
215310
215310
215310
215310
215310
215310
215310
215310
215310
215310
215310
215310
215310
215310
215310
215310
215310
215310
215310
215310
215310
215310
215310
215310
215310
215310
215310
215310
215310
215310
215310
215310
215310
215310
215310
215310
215310
215310
215310
215310
215310
215310
215310
215310
215310
215310
215310
215310
215310
215310
215310
215310
215310
215310
215310
215310
215310
215310
215310
215310
215310
215310
215310
215310
215310
215310
215310
215310
215310
215310
215310
215310
215310
215310
215310
215310
215310
215310
215310
215310
215310
215310
215310
215310
215310
215310
215310
215310
215310
215310
215310
215310
215310
215310
215310
215310
215310
215310
215310
215310
)
;

boundaryField
{
    wedge0
    {
        type            wedge;
    }
    wedge1
    {
        type            wedge;
    }
    wedge2
    {
        type            wedge;
    }
    wedge3
    {
        type            wedge;
    }
    outlet
    {
        type            zeroGradient;
    }
    defaultFaces
    {
        type            empty;
    }
}


// ************************************************************************* //
