/*--------------------------------*- C++ -*----------------------------------*\
| =========                 |                                                 |
| \\      /  F ield         | OpenFOAM: The Open Source CFD Toolbox           |
|  \\    /   O peration     | Version:  2312                                  |
|   \\  /    A nd           | Website:  www.openfoam.com                      |
|    \\/     M anipulation  |                                                 |
\*---------------------------------------------------------------------------*/
FoamFile
{
    version     2.0;
    format      ascii;
    arch        "LSB;label=32;scalar=64";
    class       volVectorField;
    location    "3e-05";
    object      U;
}
// * * * * * * * * * * * * * * * * * * * * * * * * * * * * * * * * * * * * * //

dimensions      [0 1 -1 0 0 0 0];

internalField   nonuniform List<vector> 
500
(
(9.05668 -4.15565e-10 4.20535e-10)
(16.3097 -3.9459e-10 4.0096e-10)
(24.4006 -4.11834e-10 4.19061e-10)
(32.9949 -4.105e-10 4.18437e-10)
(41.7904 -3.77885e-10 3.85142e-10)
(50.6836 -3.7882e-10 3.8509e-10)
(59.6312 -3.71706e-10 3.76702e-10)
(68.6123 -3.61595e-10 3.63932e-10)
(77.6155 -3.37845e-10 3.38957e-10)
(86.6341 -3.065e-10 3.06527e-10)
(95.664 -2.80297e-10 2.80302e-10)
(104.702 -2.54009e-10 2.53963e-10)
(113.747 -2.27486e-10 2.2744e-10)
(122.798 -2.01064e-10 2.01026e-10)
(131.853 -1.75029e-10 1.75017e-10)
(140.911 -1.4955e-10 1.49536e-10)
(149.973 -1.25398e-10 1.2542e-10)
(159.038 -1.11246e-10 1.11277e-10)
(168.105 -1.00773e-10 1.00771e-10)
(177.174 -9.51528e-11 9.51616e-11)
(186.246 -9.19368e-11 9.19371e-11)
(195.319 -9.03572e-11 9.03578e-11)
(204.395 -9.13121e-11 9.13104e-11)
(213.472 -9.22994e-11 9.22933e-11)
(222.551 -9.1157e-11 9.11519e-11)
(231.631 -8.82388e-11 8.82399e-11)
(240.713 -8.61341e-11 8.61332e-11)
(249.797 -8.61251e-11 8.61273e-11)
(258.882 -8.15478e-11 8.15478e-11)
(267.969 -7.70406e-11 7.70408e-11)
(277.058 -7.43609e-11 7.4361e-11)
(286.148 -7.09057e-11 7.09057e-11)
(295.24 -6.57407e-11 6.57407e-11)
(304.334 -6.14765e-11 6.14765e-11)
(313.429 -5.6502e-11 5.6502e-11)
(322.526 -5.16666e-11 5.16666e-11)
(331.625 -4.80807e-11 4.80807e-11)
(340.726 -4.54683e-11 4.54683e-11)
(349.829 -4.39122e-11 4.39122e-11)
(358.934 -4.33546e-11 4.33546e-11)
(368.041 -4.08428e-11 4.08428e-11)
(377.151 -3.65469e-11 3.65469e-11)
(386.262 -3.31127e-11 3.31127e-11)
(395.376 -3.02258e-11 3.02258e-11)
(404.493 -2.75705e-11 2.75705e-11)
(413.612 -2.58994e-11 2.58994e-11)
(422.733 -2.34924e-11 2.34924e-11)
(431.858 -2.09414e-11 2.09414e-11)
(440.986 -1.76355e-11 1.76355e-11)
(450.116 -1.52764e-11 1.52764e-11)
(459.25 -1.2575e-11 1.2575e-11)
(468.387 -1.0188e-11 1.0188e-11)
(477.528 -8.55775e-12 8.55775e-12)
(486.672 -6.61513e-12 6.61513e-12)
(495.82 -4.93841e-12 4.93841e-12)
(504.973 -3.42e-12 3.42e-12)
(514.129 -1.31242e-12 1.31242e-12)
(523.29 2.89317e-13 -2.89317e-13)
(532.456 1.85187e-12 -1.85187e-12)
(541.627 3.3716e-12 -3.3716e-12)
(550.803 3.50801e-12 -3.50801e-12)
(559.984 3.22804e-12 -3.22804e-12)
(569.171 2.5334e-12 -2.5334e-12)
(578.364 1.68525e-12 -1.68525e-12)
(587.564 1.20937e-12 -1.20937e-12)
(596.77 1.0934e-12 -1.0934e-12)
(605.983 1.34361e-12 -1.34361e-12)
(615.204 1.96568e-12 -1.96568e-12)
(624.433 1.67343e-12 -1.67343e-12)
(633.67 1.5259e-12 -1.5259e-12)
(642.915 1.40353e-12 -1.40353e-12)
(652.17 1.06273e-12 -1.06273e-12)
(661.435 7.00226e-13 -7.00226e-13)
(670.71 5.70512e-13 -5.70512e-13)
(679.996 6.83869e-13 -6.83869e-13)
(689.294 1.05829e-12 -1.05829e-12)
(698.604 8.12225e-13 -8.12225e-13)
(707.927 7.40924e-13 -7.40924e-13)
(717.264 5.88556e-13 -5.87718e-13)
(726.616 3.19054e-13 -3.1759e-13)
(735.983 2.02881e-13 -2.00934e-13)
(745.366 2.54038e-13 -2.51839e-13)
(754.767 4.87312e-13 -4.85738e-13)
(764.186 4.35588e-13 -4.35188e-13)
(773.626 3.69416e-13 -3.6893e-13)
(783.086 -1.00683e-14 1.03395e-14)
(792.568 -1.78891e-13 1.78673e-13)
(802.074 -3.7165e-13 3.71447e-13)
(811.605 -3.49259e-13 3.48593e-13)
(821.163 -3.49389e-13 3.49598e-13)
(830.749 -4.4645e-13 4.46367e-13)
(840.365 -3.43185e-13 3.42545e-13)
(850.014 -3.41708e-13 3.41757e-13)
(859.698 -4.23719e-13 4.24154e-13)
(869.418 -3.37898e-13 3.38077e-13)
(879.177 -3.34556e-13 3.34531e-13)
(888.977 -4.06012e-13 4.05562e-13)
(898.822 -3.32772e-13 3.32596e-13)
(908.715 -3.29954e-13 3.29876e-13)
(918.658 -1.74107e-13 1.74222e-13)
(928.655 -1.22462e-13 1.22469e-13)
(938.709 -2.34989e-14 2.93684e-14)
(948.826 0 0)
(959.007 0 2.28621e-14)
(969.26 0 -2.07994e-14)
(979.587 6.22884e-14 -8.03213e-14)
(989.994 3.23392e-14 -4.67249e-14)
(1000.49 1.18247e-13 -1.27223e-13)
(1011.07 1.49258e-13 -1.49354e-13)
(1021.75 9.79309e-14 -9.46215e-14)
(1032.54 1.25288e-13 -1.22019e-13)
(1043.44 3.03601e-13 -3.00523e-13)
(1054.46 3.40257e-13 -3.37139e-13)
(1065.61 4.12663e-13 -4.11646e-13)
(1076.89 5.72517e-13 -5.71641e-13)
(1088.32 6.7016e-13 -6.69357e-13)
(1099.91 6.6362e-13 -6.62556e-13)
(1111.67 6.44461e-13 -6.43233e-13)
(1123.61 5.88408e-13 -5.86585e-13)
(1135.74 4.39117e-13 -4.37457e-13)
(1148.07 3.95264e-13 -3.93779e-13)
(1160.63 4.36788e-13 -4.35416e-13)
(1173.42 3.63675e-13 -3.62417e-13)
(1186.47 2.99677e-13 -2.98509e-13)
(1199.78 2.43522e-13 -2.4247e-13)
(1213.39 1.94011e-13 -1.93092e-13)
(1227.31 1.4841e-13 -1.47658e-13)
(1241.55 9.60595e-14 -9.56346e-14)
(1256.16 4.64638e-14 -4.60518e-14)
(1271.14 8.3964e-15 -8.09107e-15)
(1286.53 0 0)
(1302.35 0 0)
(1318.63 -1.52039e-15 1.52039e-15)
(1335.41 -9.26013e-15 9.26013e-15)
(1352.7 -7.58286e-14 7.58286e-14)
(1370.54 -1.27459e-13 1.27459e-13)
(1388.94 -5.89132e-14 5.89132e-14)
(1407.91 -3.76645e-14 3.76645e-14)
(1427.51 -1.96376e-14 1.96376e-14)
(1447.71 -4.97502e-15 4.97502e-15)
(1468.36 -1.47188e-15 1.47188e-15)
(1489.32 -1.46528e-15 1.46528e-15)
(1510.32 -3.1538e-14 3.1538e-14)
(1530.92 -1.91934e-14 1.91934e-14)
(1550.39 -9.13306e-15 9.13306e-15)
(1567.57 -2.13993e-15 2.13993e-15)
(1580.57 -8.14424e-16 8.14424e-16)
(1586.41 0 0)
(1580.3 0 0)
(1554.67 1.04665e-14 -1.04665e-14)
(1497.39 6.92557e-15 -6.92557e-15)
(1389.27 -2.03209e-15 2.03209e-15)
(1201.36 -3.79908e-17 3.79908e-17)
(899.83 6.03316e-15 -6.03316e-15)
(495.944 -1.24708e-15 1.24708e-15)
(142.401 0 0)
(15.3011 -7.41306e-16 7.49583e-16)
(0.909287 -1.04902e-14 1.05085e-14)
(0.0490905 -1.13106e-14 1.13362e-14)
(0.00262251 -2.10177e-14 2.10514e-14)
(0.000139223 -2.17858e-14 2.18126e-14)
(7.34625e-06 -1.38224e-14 1.38423e-14)
(3.85311e-07 -1.45296e-14 1.45447e-14)
(2.00833e-08 -2.37355e-14 2.37462e-14)
(1.03409e-09 -7.62231e-15 7.62653e-15)
(4.46053e-11 0 0)
(-5.99289e-12 0 0)
(-2.27791e-12 4.02653e-15 -4.02653e-15)
(-6.00846e-12 0 0)
(-3.23465e-12 0 0)
(-1.85675e-14 0 0)
(1.66095e-12 -3.84317e-15 3.81299e-15)
(4.53863e-12 0 -5.89651e-17)
(1.74374e-12 0 0)
(-3.26012e-12 -7.42408e-15 7.42408e-15)
(-8.63611e-12 -7.38018e-15 7.38018e-15)
(-1.30705e-11 -4.27187e-17 4.27187e-17)
(-8.05484e-12 0 0)
(3.65812e-12 -3.1506e-17 3.1506e-17)
(1.01288e-12 6.99375e-15 -6.99375e-15)
(-6.90294e-12 6.96264e-15 -6.96264e-15)
(-1.04753e-11 3.18585e-17 -3.18585e-17)
(-8.29456e-12 0 0)
(-3.71389e-12 0 0)
(5.81579e-12 0 0)
(1.35461e-11 0 0)
(6.85577e-12 0 0)
(-6.94363e-13 0 0)
(-3.04749e-12 0 0)
(7.95059e-14 0 0)
(-2.35586e-12 3.11485e-15 -3.11485e-15)
(-2.18184e-12 0 0)
(1.18467e-13 0 0)
(-4.11075e-13 -2.02216e-15 2.02216e-15)
(2.61704e-12 1.98236e-15 -1.98236e-15)
(6.35631e-12 0 0)
(1.16318e-11 -2.92562e-15 2.92562e-15)
(1.15728e-11 0 0)
(1.09955e-11 0 0)
(-1.74588e-12 5.68441e-15 -5.68009e-15)
(-1.14679e-11 5.66086e-15 -5.65273e-15)
(-5.9965e-13 3.30793e-17 -3.02454e-17)
(1.26704e-12 0 0)
(4.87465e-13 -7.55771e-16 7.55771e-16)
(-7.18569e-13 -6.93393e-15 6.93393e-15)
(-5.3387e-12 -7.67151e-15 7.67151e-15)
(-8.27864e-12 -3.07679e-15 3.07679e-15)
(-9.8027e-12 -3.79928e-15 3.79928e-15)
(1.99458e-12 7.10761e-16 -7.10761e-16)
(1.21695e-11 0 0)
(1.18979e-11 0 0)
(6.92104e-12 -2.44609e-15 2.44609e-15)
(4.4293e-12 -9.89643e-15 9.89643e-15)
(-1.78618e-13 -1.22966e-14 1.22966e-14)
(-2.73307e-12 -1.96084e-14 1.96084e-14)
(7.55298e-13 -2.1961e-14 2.1961e-14)
(-6.18985e-12 -9.75971e-15 9.75971e-15)
(-8.27825e-12 -2.46853e-15 2.46853e-15)
(-1.09913e-12 0 0)
(8.29173e-13 0 0)
(4.62343e-12 0 0)
(8.24464e-12 0 0)
(8.77571e-12 0 0)
(1.20109e-11 2.08928e-15 -2.08928e-15)
(5.42756e-12 8.66422e-15 -8.66422e-15)
(-6.55532e-12 1.78616e-15 -1.78616e-15)
(-3.88462e-12 -2.83699e-15 2.83699e-15)
(7.75725e-13 -1.18036e-14 1.18036e-14)
(-2.27371e-13 -7.64935e-15 7.64935e-15)
(-3.74272e-12 -7.83973e-15 7.83973e-15)
(-1.02645e-11 -1.22997e-14 1.22997e-14)
(-9.31843e-12 -4.01512e-15 4.01512e-15)
(-7.04965e-12 0 0)
(-1.01231e-11 0 0)
(-7.54145e-13 0 0)
(1.16067e-11 0 0)
(1.27336e-11 0 0)
(3.94297e-12 0 0)
(-7.25121e-12 0 0)
(-9.72637e-12 -2.85142e-15 2.85142e-15)
(-6.8778e-12 -9.60189e-15 9.60189e-15)
(-3.562e-12 -4.62224e-15 4.62224e-15)
(-1.93881e-12 8.69796e-16 -8.69796e-16)
(6.23564e-12 1.77985e-14 -1.77985e-14)
(6.77887e-12 2.31986e-14 -2.31986e-14)
(-2.1373e-12 2.11547e-14 -2.11547e-14)
(-2.42688e-12 7.92348e-15 -7.92348e-15)
(3.66448e-12 5.91783e-15 -5.91783e-15)
(1.03342e-11 7.602e-15 -7.602e-15)
(7.18241e-12 -1.66384e-15 1.66384e-15)
(-3.72758e-12 -5.45988e-18 5.45988e-18)
(-1.07483e-11 0 0)
(-1.08005e-11 0 0)
(-6.80707e-12 0 0)
(3.15139e-13 0 0)
(7.84559e-12 0 0)
(1.92782e-12 -1.70518e-15 1.70518e-15)
(-2.99189e-12 -6.819e-15 6.819e-15)
(-4.35979e-12 -1.70579e-15 1.70579e-15)
(-6.96994e-12 0 0)
(1.90139e-12 0 0)
(8.12157e-12 0 0)
(3.95804e-12 1.59264e-15 -1.59264e-15)
(-3.62331e-12 6.44027e-15 -6.44027e-15)
(-1.6412e-12 1.44932e-14 -1.44932e-14)
(5.94009e-12 1.2831e-14 -1.2831e-14)
(-4.65165e-13 1.43725e-14 -1.43725e-14)
(-1.05884e-11 6.39223e-15 -6.39223e-15)
(-6.58993e-12 1.61693e-15 -1.61693e-15)
(-4.85825e-13 0 0)
(-2.39011e-12 0 0)
(-2.50574e-12 0 0)
(-9.58346e-13 0 0)
(-9.21392e-14 0 0)
(5.53489e-12 -1.48964e-15 1.48964e-15)
(6.08511e-12 -5.95683e-15 5.95683e-15)
(1.12518e-11 -1.48984e-15 1.48984e-15)
(2.22928e-11 0 0)
(1.44941e-11 0 0)
(-5.21121e-12 0 0)
(-4.37121e-12 0 0)
(4.74066e-12 9.41209e-16 -9.41209e-16)
(2.33307e-12 4.71683e-15 -4.71683e-15)
(-5.96087e-12 0 0)
(-8.13724e-12 -4.6581e-15 4.6581e-15)
(-5.12337e-12 -9.34518e-16 9.34518e-16)
(-3.77895e-12 0 0)
(-1.44302e-12 0 0)
(-7.85536e-13 -2.71604e-15 2.71604e-15)
(2.2984e-12 0 0)
(3.92711e-12 0 0)
(1.76878e-12 1.78038e-15 -1.78038e-15)
(-3.33415e-12 -1.75548e-15 1.75548e-15)
(-6.35043e-12 0 0)
(1.89457e-12 0 0)
(5.84045e-12 1.72961e-15 -1.72961e-15)
(5.09556e-12 -1.70947e-15 1.70947e-15)
(7.67565e-12 0 0)
(8.97205e-13 0 0)
(-6.58114e-12 0 0)
(-2.43434e-12 -2.50271e-15 2.50271e-15)
(5.08403e-12 8.04369e-19 -8.04369e-19)
(6.9559e-12 -2.46922e-15 2.46922e-15)
(3.60022e-12 0 0)
(-4.68799e-12 2.43837e-15 -2.43837e-15)
(-8.44361e-12 0 0)
(-8.55675e-12 0 0)
(-4.80432e-12 0 0)
(3.35588e-12 -4.75054e-15 4.75054e-15)
(2.08774e-12 -4.73538e-15 4.73538e-15)
(-1.73029e-12 -1.60424e-17 1.60424e-17)
(-2.82907e-12 0 0)
(-7.73698e-12 0 0)
(-1.48753e-11 0 0)
(-1.10312e-11 2.28541e-15 -2.28541e-15)
(9.7021e-13 0 0)
(6.81926e-12 0 0)
(1.66112e-11 -3.84066e-16 3.84066e-16)
(2.01077e-11 -5.23578e-15 5.23578e-15)
(7.27118e-12 -1.44989e-14 1.44989e-14)
(-6.87127e-12 -1.92886e-14 1.92886e-14)
(-8.58305e-12 -1.96601e-14 1.96601e-14)
(1.45335e-12 -1.5671e-14 1.5671e-14)
(6.83524e-12 -1.60377e-14 1.60377e-14)
(5.03677e-12 -1.20953e-14 1.20953e-14)
(5.06318e-12 -3.89607e-15 3.89607e-15)
(3.09959e-12 0 0)
(-2.58622e-12 0 0)
(-8.88219e-12 2.09498e-15 -2.09498e-15)
(-1.05106e-11 0 0)
(-4.85434e-13 0 0)
(8.45568e-12 0 0)
(1.18624e-11 0 0)
(4.66796e-12 -4.06401e-15 4.06401e-15)
(-4.29556e-12 -4.05238e-15 4.05238e-15)
(-6.12997e-12 -1.27789e-17 1.27789e-17)
(-3.40561e-12 0 0)
(-5.15654e-12 0 0)
(-7.87077e-12 0 0)
(-4.94792e-12 0 0)
(-5.8246e-12 0 0)
(1.93059e-12 -1.93833e-15 1.93833e-15)
(4.05384e-12 0 0)
(-5.37178e-12 0 0)
(-8.79936e-12 1.90507e-15 -1.90507e-15)
(-2.40973e-12 7.08952e-19 -7.08952e-19)
(6.18219e-12 1.88337e-15 -1.88337e-15)
(4.34009e-12 0 0)
(-2.96283e-12 -3.09533e-15 3.09533e-15)
(-2.40865e-12 -2.46129e-15 2.46129e-15)
(2.77763e-12 -5.52107e-15 5.52107e-15)
(-3.43265e-12 -4.89299e-15 4.89299e-15)
(-4.95358e-13 -6.19954e-16 6.19954e-16)
(1.02328e-11 0 0)
(7.19052e-12 0 0)
(3.95669e-12 1.78775e-15 -1.78775e-15)
(5.54323e-12 0 0)
(3.44254e-13 -4.24125e-15 4.24125e-15)
(-6.7902e-12 -4.93061e-15 4.93061e-15)
(-6.75961e-12 -2.10969e-15 2.10969e-15)
(-6.38244e-12 -2.79036e-15 2.79036e-15)
(-7.60438e-12 0 0)
(-2.37449e-12 0 0)
(6.24602e-12 -1.71147e-15 1.71147e-15)
(2.62176e-12 -1.37557e-18 1.37557e-18)
(9.673e-13 -1.69278e-15 1.69278e-15)
(3.32455e-12 0 0)
(-1.93505e-13 1.67399e-15 -1.67399e-15)
(-3.48787e-12 0 0)
(-1.84212e-12 0 0)
(-1.94248e-12 -7.97605e-16 7.97605e-16)
(-3.58813e-12 -4.87656e-15 4.87656e-15)
(3.36685e-12 -5.66569e-15 5.66569e-15)
(7.01163e-12 -9.6988e-15 9.6988e-15)
(1.97528e-12 -1.04784e-14 1.04784e-14)
(-2.93617e-12 -8.03778e-15 8.03778e-15)
(-6.33732e-12 -2.4142e-15 2.4142e-15)
(-1.4856e-12 0 0)
(-1.8884e-12 0 0)
(-3.87028e-12 1.56997e-15 -1.56997e-15)
(-3.93741e-12 5.84293e-19 -5.84293e-19)
(-8.93041e-12 1.55264e-15 -1.55264e-15)
(-4.65553e-12 0 0)
(-2.40299e-12 0 0)
(2.0779e-12 -1.52898e-15 1.52898e-15)
(5.27002e-12 0 0)
(3.37603e-12 0 0)
(4.21772e-12 0 0)
(5.60466e-12 2.99642e-15 -2.99642e-15)
(-4.12007e-13 2.98888e-15 -2.98888e-15)
(-4.40221e-12 8.73602e-18 -8.73602e-18)
(3.92753e-12 0 0)
(-5.08515e-13 0 0)
(-7.65419e-12 1.46003e-15 -1.46003e-15)
(-6.55817e-12 0 0)
(-4.16674e-12 0 0)
(2.11204e-12 0 0)
(6.49894e-12 0 0)
(4.39796e-12 0 0)
(1.78085e-12 0 0)
(-1.21025e-12 0 0)
(1.51281e-12 0 0)
(7.03984e-12 5.95277e-16 -5.95277e-16)
(6.40167e-12 3.972e-15 -3.972e-15)
(-1.75436e-13 1.01006e-14 -1.01006e-14)
(1.54698e-12 1.3441e-14 -1.3441e-14)
(3.62299e-12 1.40235e-14 -1.40235e-14)
(-1.08082e-12 6.41726e-15 -6.41726e-15)
(-2.11038e-12 1.56116e-15 -1.56116e-15)
(5.69567e-13 -5.69646e-16 5.69646e-16)
(2.14758e-12 0 0)
(-3.57905e-12 0 0)
(-5.21205e-12 0 0)
(-6.0718e-12 0 0)
(-3.23645e-13 0 0)
(2.68394e-12 0 0)
(-2.34652e-12 0 0)
(-3.13593e-12 0 0)
(-2.25057e-12 -8.63012e-16 8.63012e-16)
(8.08349e-12 8.53331e-16 -8.53331e-16)
(1.53265e-11 0 0)
(1.18604e-11 0 0)
(6.39161e-12 -1.26732e-15 1.26732e-15)
(1.76862e-12 -1.79693e-18 1.79693e-18)
(1.81372e-12 -1.25616e-15 1.25616e-15)
(-5.03001e-13 -1.53986e-18 1.53986e-18)
(-2.35598e-12 -1.24349e-15 1.24349e-15)
(1.13835e-12 0 0)
(3.16578e-12 -8.21608e-16 8.21608e-16)
(7.32212e-12 8.15051e-16 -8.15051e-16)
(3.47346e-12 0 0)
(-1.49272e-11 1.21374e-15 -1.21374e-15)
(-2.15738e-11 4.27252e-20 -4.27252e-20)
(-1.32897e-11 1.20337e-15 -1.20337e-15)
(-3.23483e-12 0 0)
(5.30844e-12 7.96079e-16 -7.96079e-16)
(1.03556e-11 -7.89788e-16 7.89788e-16)
(2.78998e-12 0 0)
(-1.52349e-12 -9.22231e-16 9.22231e-16)
(6.15222e-12 -4.1856e-15 4.1856e-15)
(7.72687e-13 -9.7676e-15 9.7676e-15)
(-6.77007e-12 -8.35142e-15 8.35142e-15)
(-1.06305e-12 0 0)
(5.18142e-13 8.27225e-15 -8.27225e-15)
(-3.95156e-12 9.62687e-15 -9.62687e-15)
(-4.47667e-12 4.1287e-15 -4.1287e-15)
(-4.50056e-12 9.26006e-16 -9.26006e-16)
(3.01598e-12 0 0)
(1.14335e-11 9.53667e-16 -9.53667e-16)
(1.11156e-11 4.14516e-15 -4.14516e-15)
(5.23396e-12 6.24716e-16 -6.24716e-16)
(-9.53098e-13 -6.57899e-16 6.57899e-16)
(1.0282e-12 -4.11915e-15 4.11915e-15)
(8.49401e-12 -9.56032e-16 9.56032e-16)
(1.00797e-11 0 0)
(-1.22836e-12 -6.62988e-16 6.62988e-16)
(-6.39125e-12 -3.49656e-15 3.49656e-15)
(-4.47502e-12 -8.48167e-15 8.48167e-15)
(-3.18988e-12 -1.55994e-14 1.55994e-14)
(1.24499e-12 -1.83785e-14 1.83785e-14)
(4.00735e-12 -1.79951e-14 1.79951e-14)
(3.15176e-12 -1.51479e-14 1.51479e-14)
(-1.52776e-12 -8.17159e-15 8.17159e-15)
(-4.44079e-12 -3.33331e-15 3.33331e-15)
(-1.36638e-12 -6.15835e-16 6.15835e-16)
(-5.79506e-13 0 0)
(2.0804e-13 0 0)
(6.08595e-12 0 0)
(-8.39412e-13 0 0)
(-4.74615e-12 0 0)
(-8.5972e-12 0 0)
(-1.04915e-11 6.73757e-16 -6.73757e-16)
(2.8769e-12 3.28887e-15 -3.28887e-15)
(7.80013e-12 -1.67987e-16 1.67987e-16)
(-1.15169e-12 -5.62148e-15 5.62148e-15)
(-5.46969e-12 -5.04212e-15 5.04212e-15)
(2.01968e-12 -6.45959e-15 6.45959e-15)
(7.36705e-12 -1.91042e-15 1.91042e-15)
(6.02436e-12 6.41744e-16 -6.41744e-16)
(-2.82949e-12 3.70574e-15 -3.70574e-15)
(-9.39503e-12 8.70114e-16 -8.70114e-16)
(-9.86829e-12 0 0)
(-6.49261e-12 0 0)
(-1.13733e-11 0 0)
(-1.14987e-11 -5.57703e-16 5.57703e-16)
(3.95972e-12 -3.03457e-15 3.03457e-15)
(8.11958e-12 2.41408e-16 -2.41408e-16)
(9.33309e-12 -2.24448e-15 2.24448e-15)
(3.99677e-12 -6.61839e-15 6.61839e-15)
(-1.06064e-11 -1.2865e-14 1.2865e-14)
(-1.28114e-11 -1.40186e-14 1.40186e-14)
(-6.82845e-12 -1.25122e-14 1.25122e-14)
(4.81643e-12 -6.57417e-15 6.57417e-15)
(9.85838e-12 -2.51965e-15 2.51965e-15)
(3.36008e-12 -3.33136e-16 3.33136e-16)
(8.88439e-12 0 0)
(8.21025e-12 -9.13902e-16 9.13902e-16)
(4.33756e-12 -3.6537e-15 3.6537e-15)
(1.64044e-12 -9.13799e-16 9.13799e-16)
(-6.98601e-12 0 0)
)
;

boundaryField
{
    wedge0
    {
        type            wedge;
    }
    wedge1
    {
        type            wedge;
    }
    wedge2
    {
        type            wedge;
    }
    wedge3
    {
        type            wedge;
    }
    outlet
    {
        type            zeroGradient;
    }
    defaultFaces
    {
        type            empty;
    }
}


// ************************************************************************* //
