/*--------------------------------*- C++ -*----------------------------------*\
| =========                 |                                                 |
| \\      /  F ield         | OpenFOAM: The Open Source CFD Toolbox           |
|  \\    /   O peration     | Version:  2312                                  |
|   \\  /    A nd           | Website:  www.openfoam.com                      |
|    \\/     M anipulation  |                                                 |
\*---------------------------------------------------------------------------*/
FoamFile
{
    version     2.0;
    format      ascii;
    arch        "LSB;label=32;scalar=64";
    class       volScalarField;
    location    "8e-05";
    object      rho;
}
// * * * * * * * * * * * * * * * * * * * * * * * * * * * * * * * * * * * * * //

dimensions      [1 -3 0 0 0 0 0];

internalField   nonuniform List<scalar> 
500
(
0.000320809
0.000320837
0.000320889
0.000320971
0.000321091
0.000321255
0.000321472
0.000321748
0.000322091
0.000322509
0.00032301
0.000323601
0.00032429
0.000325087
0.000325999
0.000327035
0.000328204
0.000329516
0.000330981
0.000332608
0.000334408
0.000336394
0.000338576
0.000340968
0.000343584
0.000346437
0.000349543
0.00035292
0.000356585
0.000360558
0.000364859
0.000369513
0.000374544
0.000379979
0.000385849
0.000392187
0.000399029
0.000406416
0.000414391
0.000423004
0.000432311
0.000442372
0.000453255
0.000465039
0.000477809
0.000491663
0.000506711
0.000523079
0.00054091
0.000560374
0.000581654
0.00060476
0.000629552
0.000655869
0.000683671
0.000713034
0.000744052
0.000776821
0.000811451
0.000848058
0.000886765
0.000927706
0.000971023
0.00101687
0.0010654
0.00111679
0.00117122
0.0012289
0.00129002
0.00135482
0.00142352
0.0014964
0.00157371
0.00165575
0.00174283
0.00183527
0.00193344
0.0020377
0.00214846
0.00226614
0.00239121
0.00252414
0.00266545
0.00281571
0.00297548
0.0031454
0.00332615
0.00351841
0.00372296
0.00394059
0.00417215
0.00441856
0.00468078
0.00495983
0.0052568
0.00557284
0.00590918
0.00626712
0.00664803
0.00705338
0.0074847
0.00794362
0.00843188
0.0089513
0.00950381
0.0100914
0.0107164
0.0113808
0.0120873
0.0128381
0.0136361
0.0144839
0.0153845
0.016341
0.0173565
0.0184345
0.0195783
0.0207918
0.0220786
0.0234428
0.0248886
0.0264201
0.028042
0.0297589
0.0315756
0.0334972
0.0355286
0.0376753
0.0399428
0.0423367
0.0448629
0.0475275
0.0503368
0.0532975
0.0564167
0.0597011
0.0631579
0.0667942
0.0706177
0.0746358
0.0788569
0.0832901
0.0879454
0.0928313
0.0979568
0.103331
0.108962
0.11486
0.121039
0.127511
0.134287
0.141378
0.148791
0.156539
0.164641
0.173115
0.181972
0.191223
0.200878
0.210962
0.221503
0.232514
0.244003
0.255984
0.268508
0.281595
0.295254
0.309489
0.32437
0.339927
0.356169
0.373088
0.390798
0.409319
0.428629
0.448779
0.469891
0.491961
0.514931
0.539017
0.564238
0.590463
0.617971
0.646772
0.676816
0.708399
0.741239
0.775862
0.811796
0.849819
0.889131
0.930882
0.973841
1.01965
1.06666
1.11703
1.16856
1.22403
1.28052
1.34167
1.40362
1.47105
1.53902
1.61332
1.68794
1.76958
1.85156
1.9409
2.03114
2.12878
2.22828
2.33493
2.44443
2.56072
2.68165
2.80925
2.94277
3.08273
3.22919
3.38248
3.54322
3.71385
3.90378
4.12398
4.27589
4.32309
4.18969
3.36453
1.72523
1.21508
1.16439
1.16118
1.16101
1.161
1.161
1.161
1.161
1.161
1.161
1.161
1.161
1.161
1.161
1.161
1.161
1.161
1.161
1.161
1.161
1.161
1.161
1.161
1.161
1.161
1.161
1.161
1.161
1.161
1.161
1.161
1.161
1.161
1.161
1.161
1.161
1.161
1.161
1.161
1.161
1.161
1.161
1.161
1.161
1.161
1.161
1.161
1.161
1.161
1.161
1.161
1.161
1.161
1.161
1.161
1.161
1.161
1.161
1.161
1.161
1.161
1.161
1.161
1.161
1.161
1.161
1.161
1.161
1.161
1.161
1.161
1.161
1.161
1.161
1.161
1.161
1.161
1.161
1.161
1.161
1.161
1.161
1.161
1.161
1.161
1.161
1.161
1.161
1.161
1.161
1.161
1.161
1.161
1.161
1.161
1.161
1.161
1.161
1.161
1.161
1.161
1.161
1.161
1.161
1.161
1.161
1.161
1.161
1.161
1.161
1.161
1.161
1.161
1.161
1.161
1.161
1.161
1.161
1.161
1.161
1.161
1.161
1.161
1.161
1.161
1.161
1.161
1.161
1.161
1.161
1.161
1.161
1.161
1.161
1.161
1.161
1.161
1.161
1.161
1.161
1.161
1.161
1.161
1.161
1.161
1.161
1.161
1.161
1.161
1.161
1.161
1.161
1.161
1.161
1.161
1.161
1.161
1.161
1.161
1.161
1.161
1.161
1.161
1.161
1.161
1.161
1.161
1.161
1.161
1.161
1.161
1.161
1.161
1.161
1.161
1.161
1.161
1.161
1.161
1.161
1.161
1.161
1.161
1.161
1.161
1.161
1.161
1.161
1.161
1.161
1.161
1.161
1.161
1.161
1.161
1.161
1.161
1.161
1.161
1.161
1.161
1.161
1.161
1.161
1.161
1.161
1.161
1.161
1.161
1.161
1.161
1.161
1.161
1.161
1.161
1.161
1.161
1.161
1.161
1.161
1.161
1.161
1.161
1.161
1.161
1.161
1.161
1.161
1.161
1.161
1.161
1.161
1.161
1.161
1.161
1.161
1.161
1.161
1.161
1.161
1.161
1.161
1.161
1.161
1.161
1.161
1.161
1.161
1.161
1.161
1.161
1.161
1.161
1.161
1.161
1.161
1.161
1.161
1.161
1.161
1.161
1.161
1.161
1.161
1.161
1.161
1.161
1.161
1.161
1.161
1.161
)
;

boundaryField
{
    wedge0
    {
        type            wedge;
    }
    wedge1
    {
        type            wedge;
    }
    wedge2
    {
        type            wedge;
    }
    wedge3
    {
        type            wedge;
    }
    outlet
    {
        type            zeroGradient;
    }
    defaultFaces
    {
        type            empty;
    }
}


// ************************************************************************* //
