/*--------------------------------*- C++ -*----------------------------------*\
| =========                 |                                                 |
| \\      /  F ield         | OpenFOAM: The Open Source CFD Toolbox           |
|  \\    /   O peration     | Version:  2312                                  |
|   \\  /    A nd           | Website:  www.openfoam.com                      |
|    \\/     M anipulation  |                                                 |
\*---------------------------------------------------------------------------*/
FoamFile
{
    version     2.0;
    format      ascii;
    arch        "LSB;label=32;scalar=64";
    class       volScalarField;
    location    "8e-05";
    object      T;
}
// * * * * * * * * * * * * * * * * * * * * * * * * * * * * * * * * * * * * * //

dimensions      [0 0 0 1 0 0 0];

internalField   nonuniform List<scalar> 
500
(
5.15282e+06
5.15242e+06
5.15162e+06
5.15031e+06
5.1484e+06
5.14577e+06
5.14231e+06
5.1379e+06
5.13243e+06
5.12578e+06
5.11783e+06
5.10849e+06
5.09762e+06
5.08513e+06
5.07091e+06
5.05485e+06
5.03684e+06
5.01679e+06
4.99459e+06
4.97016e+06
4.9434e+06
4.91422e+06
4.88255e+06
4.8483e+06
4.81139e+06
4.77177e+06
4.72936e+06
4.68412e+06
4.63598e+06
4.5849e+06
4.53084e+06
4.47379e+06
4.4137e+06
4.35057e+06
4.28438e+06
4.21515e+06
4.14288e+06
4.06759e+06
3.98931e+06
3.90808e+06
3.82396e+06
3.73699e+06
3.64726e+06
3.55485e+06
3.45985e+06
3.36237e+06
3.26252e+06
3.16043e+06
3.05626e+06
2.95015e+06
2.84227e+06
2.73356e+06
2.62593e+06
2.52065e+06
2.41812e+06
2.31853e+06
2.22189e+06
2.12816e+06
2.03735e+06
1.94941e+06
1.86433e+06
1.78206e+06
1.70257e+06
1.62582e+06
1.55177e+06
1.48037e+06
1.41158e+06
1.34534e+06
1.2816e+06
1.22031e+06
1.16142e+06
1.10487e+06
1.0506e+06
998551
948669
900892
855161
811414
769593
729637
691486
655079
620359
587266
555741
525729
497171
470013
444200
419679
396396
374301
353343
333474
314646
296813
279930
263954
248842
234553
221048
208289
196240
184865
174130
164002
154451
145445
136958
128961
121427
114332
107652
101364
95446.9
89879.2
84641.5
79715.4
75082.9
70727.4
66632.8
62784.1
59166.9
55767.7
52573.7
49572.7
46753.2
44104.2
41615.5
39277.4
37080.8
35016.9
33077.7
31255.6
29543.4
27934.2
26421.5
24999.3
23662
22404.2
21220.9
20107.6
19060
18073.9
17145.5
16271.1
15447.2
14670.8
13939
13249.2
12598.7
11985.1
11405.8
10858.8
10342.3
9854.7
9393.95
8958.29
8546.03
8156.08
7787.24
7438.11
7107.22
6793.41
6496.18
6214.49
5947.16
5693.07
5451.98
5223.28
5005.89
4798.84
4602.28
4415.6
4237.69
4068.14
3907.26
3754.09
3607.66
3468.68
3336.46
3209.8
3089.64
2975.28
2865.56
2762.1
2662.02
2568.46
2477
2392.52
2308.83
2232.48
2156.11
2087
2017.41
1954.8
1891.34
1834.68
1776.78
1725.57
1672.75
1626.47
1578.3
1536.46
1492.58
1454.69
1414.83
1380.43
1344.47
1313.25
1281
1252.61
1223.86
1198.08
1173
1149.76
1127.68
1106.96
1087.47
1069.24
1052.39
1037.33
1024.88
1014.68
1001.8
980.421
936.177
819.723
506.595
313.339
300.506
300.021
300.001
300
300
300
300
300
300
300
300
300
300
300
300
300
300
300
300
300
300
300
300
300
300
300
300
300
300
300
300
300
300
300
300
300
300
300
300
300
300
300
300
300
300
300
300
300
300
300
300
300
300
300
300
300
300
300
300
300
300
300
300
300
300
300
300
300
300
300
300
300
300
300
300
300
300
300
300
300
300
300
300
300
300
300
300
300
300
300
300
300
300
300
300
300
300
300
300
300
300
300
300
300
300
300
300
300
300
300
300
300
300
300
300
300
300
300
300
300
300
300
300
300
300
300
300
300
300
300
300
300
300
300
300
300
300
300
300
300
300
300
300
300
300
300
300
300
300
300
300
300
300
300
300
300
300
300
300
300
300
300
300
300
300
300
300
300
300
300
300
300
300
300
300
300
300
300
300
300
300
300
300
300
300
300
300
300
300
300
300
300
300
300
300
300
300
300
300
300
300
300
300
300
300
300
300
300
300
300
300
300
300
300
300
300
300
300
300
300
300
300
300
300
300
300
300
300
300
300
300
300
300
300
300
300
300
300
300
300
300
300
300
300
300
300
300
300
300
300
300
300
300
300
300
300
300
300
300
300
300
300
300
300
300
300
300
300
300
300
)
;

boundaryField
{
    wedge0
    {
        type            wedge;
    }
    wedge1
    {
        type            wedge;
    }
    wedge2
    {
        type            wedge;
    }
    wedge3
    {
        type            wedge;
    }
    outlet
    {
        type            zeroGradient;
    }
    defaultFaces
    {
        type            empty;
    }
}


// ************************************************************************* //
