/*--------------------------------*- C++ -*----------------------------------*\
| =========                 |                                                 |
| \\      /  F ield         | OpenFOAM: The Open Source CFD Toolbox           |
|  \\    /   O peration     | Version:  2312                                  |
|   \\  /    A nd           | Website:  www.openfoam.com                      |
|    \\/     M anipulation  |                                                 |
\*---------------------------------------------------------------------------*/
FoamFile
{
    version     2.0;
    format      ascii;
    arch        "LSB;label=32;scalar=64";
    class       volScalarField;
    location    "8e-05";
    object      thermo:e;
}
// * * * * * * * * * * * * * * * * * * * * * * * * * * * * * * * * * * * * * //

dimensions      [0 2 -2 0 0 0 0];

internalField   nonuniform List<scalar> 
500
(
3.69818e+09
3.69789e+09
3.69731e+09
3.69638e+09
3.695e+09
3.69312e+09
3.69063e+09
3.68747e+09
3.68354e+09
3.67877e+09
3.67307e+09
3.66636e+09
3.65856e+09
3.6496e+09
3.63939e+09
3.62786e+09
3.61494e+09
3.60055e+09
3.58462e+09
3.56708e+09
3.54788e+09
3.52694e+09
3.50421e+09
3.47962e+09
3.45314e+09
3.4247e+09
3.39426e+09
3.36179e+09
3.32724e+09
3.29058e+09
3.25179e+09
3.21084e+09
3.16771e+09
3.1224e+09
3.0749e+09
3.02521e+09
2.97334e+09
2.91931e+09
2.86313e+09
2.80483e+09
2.74445e+09
2.68204e+09
2.61764e+09
2.55132e+09
2.48313e+09
2.41317e+09
2.34151e+09
2.26824e+09
2.19348e+09
2.11732e+09
2.0399e+09
1.96188e+09
1.88463e+09
1.80907e+09
1.73549e+09
1.66401e+09
1.59465e+09
1.52738e+09
1.4622e+09
1.39909e+09
1.33803e+09
1.27898e+09
1.22193e+09
1.16685e+09
1.11371e+09
1.06246e+09
1.01309e+09
9.65548e+08
9.19804e+08
8.75818e+08
8.33552e+08
7.92964e+08
7.54014e+08
7.1666e+08
6.8086e+08
6.4657e+08
6.13749e+08
5.82352e+08
5.52337e+08
5.23661e+08
4.96279e+08
4.7015e+08
4.45232e+08
4.2148e+08
3.98856e+08
3.77315e+08
3.5682e+08
3.37329e+08
3.18803e+08
3.01203e+08
2.84493e+08
2.68636e+08
2.53594e+08
2.39334e+08
2.25822e+08
2.13023e+08
2.00906e+08
1.8944e+08
1.78594e+08
1.68339e+08
1.58646e+08
1.49489e+08
1.40841e+08
1.32677e+08
1.24973e+08
1.17704e+08
1.10849e+08
1.04386e+08
9.82947e+07
9.2555e+07
8.71482e+07
8.20562e+07
7.7262e+07
7.27492e+07
6.85023e+07
6.45063e+07
6.07472e+07
5.72117e+07
5.3887e+07
5.07611e+07
4.78224e+07
4.50601e+07
4.24641e+07
4.00245e+07
3.77322e+07
3.55783e+07
3.35548e+07
3.16536e+07
2.98675e+07
2.81894e+07
2.66129e+07
2.51317e+07
2.37399e+07
2.24322e+07
2.12033e+07
2.00483e+07
1.89627e+07
1.7942e+07
1.69822e+07
1.60795e+07
1.52302e+07
1.44312e+07
1.36793e+07
1.29717e+07
1.23054e+07
1.16778e+07
1.10865e+07
1.05292e+07
1.0004e+07
9.50893e+06
9.04209e+06
8.60167e+06
8.18593e+06
7.79335e+06
7.4227e+06
7.07272e+06
6.74204e+06
6.42937e+06
6.13349e+06
5.85362e+06
5.5889e+06
5.33833e+06
5.10085e+06
4.87563e+06
4.66231e+06
4.46014e+06
4.26827e+06
4.08591e+06
3.91289e+06
3.74875e+06
3.59273e+06
3.44413e+06
3.30306e+06
3.16907e+06
3.04139e+06
2.91971e+06
2.80424e+06
2.69431e+06
2.58922e+06
2.48947e+06
2.39458e+06
2.30367e+06
2.21744e+06
2.13536e+06
2.05661e+06
1.98236e+06
1.91053e+06
1.84338e+06
1.77775e+06
1.71711e+06
1.65705e+06
1.60225e+06
1.54744e+06
1.49784e+06
1.4479e+06
1.40296e+06
1.35741e+06
1.31675e+06
1.2752e+06
1.23844e+06
1.20053e+06
1.16732e+06
1.13274e+06
1.10272e+06
1.07122e+06
1.04403e+06
1.01542e+06
990734
964929
942519
919371
899000
878363
859863
841862
825183
809337
794466
780478
767395
755298
744494
735559
728235
718993
703648
671894
588315
363584
224883
215673
215325
215311
215310
215310
215310
215310
215310
215310
215310
215310
215310
215310
215310
215310
215310
215310
215310
215310
215310
215310
215310
215310
215310
215310
215310
215310
215310
215310
215310
215310
215310
215310
215310
215310
215310
215310
215310
215310
215310
215310
215310
215310
215310
215310
215310
215310
215310
215310
215310
215310
215310
215310
215310
215310
215310
215310
215310
215310
215310
215310
215310
215310
215310
215310
215310
215310
215310
215310
215310
215310
215310
215310
215310
215310
215310
215310
215310
215310
215310
215310
215310
215310
215310
215310
215310
215310
215310
215310
215310
215310
215310
215310
215310
215310
215310
215310
215310
215310
215310
215310
215310
215310
215310
215310
215310
215310
215310
215310
215310
215310
215310
215310
215310
215310
215310
215310
215310
215310
215310
215310
215310
215310
215310
215310
215310
215310
215310
215310
215310
215310
215310
215310
215310
215310
215310
215310
215310
215310
215310
215310
215310
215310
215310
215310
215310
215310
215310
215310
215310
215310
215310
215310
215310
215310
215310
215310
215310
215310
215310
215310
215310
215310
215310
215310
215310
215310
215310
215310
215310
215310
215310
215310
215310
215310
215310
215310
215310
215310
215310
215310
215310
215310
215310
215310
215310
215310
215310
215310
215310
215310
215310
215310
215310
215310
215310
215310
215310
215310
215310
215310
215310
215310
215310
215310
215310
215310
215310
215310
215310
215310
215310
215310
215310
215310
215310
215310
215310
215310
215310
215310
215310
215310
215310
215310
215310
215310
215310
215310
215310
215310
215310
215310
215310
215310
215310
215310
215310
215310
215310
215310
215310
215310
215310
215310
215310
215310
215310
215310
215310
215310
215310
215310
215310
215310
215310
215310
215310
215310
215310
215310
215310
215310
215310
215310
215310
215310
215310
215310
215310
)
;

boundaryField
{
    wedge0
    {
        type            wedge;
    }
    wedge1
    {
        type            wedge;
    }
    wedge2
    {
        type            wedge;
    }
    wedge3
    {
        type            wedge;
    }
    outlet
    {
        type            zeroGradient;
    }
    defaultFaces
    {
        type            empty;
    }
}


// ************************************************************************* //
