/*--------------------------------*- C++ -*----------------------------------*\
| =========                 |                                                 |
| \\      /  F ield         | OpenFOAM: The Open Source CFD Toolbox           |
|  \\    /   O peration     | Version:  2312                                  |
|   \\  /    A nd           | Website:  www.openfoam.com                      |
|    \\/     M anipulation  |                                                 |
\*---------------------------------------------------------------------------*/
FoamFile
{
    version     2.0;
    format      ascii;
    arch        "LSB;label=32;scalar=64";
    class       volVectorField;
    location    "8e-05";
    object      U;
}
// * * * * * * * * * * * * * * * * * * * * * * * * * * * * * * * * * * * * * //

dimensions      [0 1 -1 0 0 0 0];

internalField   nonuniform List<vector> 
500
(
(2.64695 -1.77879e-08 1.85641e-08)
(5.38256 -1.79287e-08 1.87428e-08)
(8.43715 -1.83428e-08 1.91585e-08)
(11.5687 -1.87113e-08 1.95783e-08)
(14.7288 -1.83138e-08 1.91907e-08)
(17.9044 -1.84645e-08 1.9338e-08)
(21.092 -1.8759e-08 1.95773e-08)
(24.2903 -1.8858e-08 1.96374e-08)
(27.4985 -1.81013e-08 1.87692e-08)
(30.7153 -1.66544e-08 1.72669e-08)
(33.9391 -1.51425e-08 1.57284e-08)
(37.1687 -1.37471e-08 1.43092e-08)
(40.4033 -1.23246e-08 1.28623e-08)
(43.6434 -1.04675e-08 1.09942e-08)
(46.8899 -8.24312e-09 8.74353e-09)
(50.1447 -6.14664e-09 6.58906e-09)
(53.4089 -4.21593e-09 4.65739e-09)
(56.6835 -2.87843e-09 3.30967e-09)
(59.969 -1.38785e-09 1.75554e-09)
(63.2673 -8.38472e-10 1.17485e-09)
(66.5788 -5.85216e-10 8.91662e-10)
(69.904 -6.16134e-10 8.94335e-10)
(73.245 -9.23346e-10 1.1796e-09)
(76.6036 -1.45083e-09 1.66687e-09)
(79.9808 -1.60593e-09 1.83756e-09)
(83.377 -1.57867e-09 1.81442e-09)
(86.793 -1.74412e-09 1.93917e-09)
(90.2301 -2.06131e-09 2.23509e-09)
(93.6903 -1.74762e-09 1.92679e-09)
(97.1758 -1.59179e-09 1.75548e-09)
(100.687 -1.61316e-09 1.77252e-09)
(104.227 -1.99678e-09 2.156e-09)
(107.798 -1.72186e-09 1.86081e-09)
(111.401 -1.54908e-09 1.63489e-09)
(115.039 -1.35666e-09 1.38589e-09)
(118.716 -1.30092e-09 1.30092e-09)
(122.432 -1.09738e-09 1.09739e-09)
(126.191 -1.0629e-09 1.0629e-09)
(129.996 -1.17327e-09 1.17327e-09)
(133.849 -1.55077e-09 1.55077e-09)
(137.754 -1.62066e-09 1.62066e-09)
(141.715 -1.31014e-09 1.31014e-09)
(145.733 -1.09223e-09 1.09223e-09)
(149.812 -9.93957e-10 9.93957e-10)
(153.958 -9.62717e-10 9.62717e-10)
(158.176 -1.08139e-09 1.08139e-09)
(162.47 -9.9863e-10 9.9863e-10)
(166.846 -1.0149e-09 1.0149e-09)
(171.306 -8.09612e-10 8.09612e-10)
(175.64 -8.09413e-10 8.09413e-10)
(179.316 -8.062e-10 8.062e-10)
(180.225 -8.01669e-10 8.01669e-10)
(179.64 -7.98583e-10 7.98583e-10)
(180.621 -7.91008e-10 7.91008e-10)
(183.173 -7.76675e-10 7.76675e-10)
(186.175 -7.32737e-10 7.32737e-10)
(189.293 -6.12938e-10 6.12938e-10)
(192.456 -4.96158e-10 4.96158e-10)
(195.643 -2.61922e-10 2.61922e-10)
(198.841 1.12692e-10 -1.12692e-10)
(202.038 8.70966e-11 -8.70966e-11)
(205.244 1.62226e-12 -1.62226e-12)
(208.448 1.63094e-12 -1.63094e-12)
(211.658 1.57802e-12 -1.57802e-12)
(214.866 0 3.98017e-31)
(218.079 2.2725e-11 -2.2725e-11)
(221.29 -1.0485e-11 1.0485e-11)
(224.505 1.75348e-10 -1.75348e-10)
(227.717 1.22555e-10 -1.22555e-10)
(230.934 7.00991e-11 -7.00991e-11)
(234.147 2.96249e-11 -2.96249e-11)
(237.364 9.75073e-12 -9.75073e-12)
(240.577 1.33791e-12 -1.33791e-12)
(243.791 9.54492e-12 -9.54492e-12)
(246.999 -1.73678e-11 1.73678e-11)
(250.205 7.58482e-11 -7.58482e-11)
(253.405 5.06932e-11 -5.06932e-11)
(256.602 2.439e-11 -2.439e-11)
(259.791 8.94543e-12 -8.94543e-12)
(262.975 1.21545e-12 -1.2133e-12)
(266.15 8.66474e-12 -8.66531e-12)
(269.319 -1.58753e-11 1.58759e-11)
(272.48 4.21899e-11 -4.21895e-11)
(275.634 3.45447e-11 -3.45446e-11)
(278.781 4.1916e-11 -4.18681e-11)
(281.923 -5.8399e-12 5.84032e-12)
(285.06 6.34535e-12 -6.34507e-12)
(288.194 -1.87916e-11 5.70748e-12)
(291.327 -1.9303e-11 1.93029e-11)
(294.461 -1.68999e-12 1.68982e-12)
(297.6 -2.31609e-11 2.31617e-11)
(300.743 -3.47463e-11 3.47153e-11)
(303.897 -1.10638e-11 1.6146e-11)
(307.058 -2.65772e-11 2.66124e-11)
(310.236 -2.56055e-11 2.56192e-11)
(313.425 -1.62942e-11 1.69344e-11)
(316.632 -1.4642e-11 1.90805e-11)
(319.854 -5.12431e-12 5.12392e-12)
(323.094 -1.77664e-11 1.3148e-11)
(326.351 5.5173e-12 -9.02113e-12)
(329.622 -5.44994e-12 5.44966e-12)
(332.908 8.6204e-12 -8.90533e-12)
(336.202 -4.20492e-12 4.36297e-12)
(339.509 8.19145e-12 -8.19163e-12)
(342.813 -4.30941e-12 4.30938e-12)
(346.122 8.37217e-12 -1.08939e-11)
(349.417 -4.27159e-12 3.46187e-12)
(352.706 6.79791e-12 -4.15133e-12)
(355.973 1.00311e-12 5.75879e-13)
(359.222 3.20767e-12 -3.20761e-12)
(362.448 -8.41275e-13 8.41248e-13)
(365.658 7.5093e-12 -7.50951e-12)
(368.858 5.85023e-12 -5.8504e-12)
(372.055 5.72407e-12 -5.7241e-12)
(375.258 5.76605e-12 -5.67136e-12)
(378.478 1.33736e-11 -1.23715e-11)
(381.72 1.0068e-11 -1.00613e-11)
(384.989 7.87438e-12 -7.22033e-12)
(388.291 7.67976e-12 -9.68016e-12)
(391.615 6.72345e-12 -7.30238e-12)
(394.965 3.42465e-12 -4.57329e-12)
(398.321 7.63627e-12 -7.41853e-12)
(401.671 7.51445e-12 -6.49231e-12)
(404.994 5.63275e-12 -4.57944e-12)
(408.284 4.56195e-12 -4.56207e-12)
(411.544 4.57469e-12 -4.5746e-12)
(414.788 4.47601e-12 -4.27524e-12)
(418.03 4.24783e-12 -4.03341e-12)
(421.289 2.46838e-12 -2.76821e-12)
(424.578 2.07157e-12 -1.95732e-12)
(427.911 2.18443e-12 -1.94223e-12)
(431.284 1.96519e-12 -2.05208e-12)
(434.683 2.82724e-12 -3.41311e-12)
(438.075 1.59346e-12 -1.91961e-12)
(441.428 2.71567e-12 -2.81819e-12)
(444.749 -3.75537e-13 8.72323e-13)
(448.044 1.79554e-13 2.21468e-13)
(451.346 -1.90208e-13 7.24148e-15)
(454.671 -2.17371e-13 2.17351e-13)
(458.05 2.95412e-14 -2.17194e-13)
(461.477 -1.96657e-14 1.40406e-13)
(464.919 3.26529e-13 -2.15813e-13)
(468.323 -4.14247e-13 2.02113e-13)
(471.697 -4.23093e-14 2.12286e-13)
(475.05 -2.10524e-13 1.98052e-13)
(478.423 8.61706e-16 -8.8079e-16)
(481.842 -3.23792e-13 1.86151e-13)
(485.324 -1.10508e-13 -8.42415e-14)
(488.815 -2.08729e-13 7.17919e-14)
(492.255 -7.19181e-14 -7.45659e-14)
(495.678 2.08126e-13 -2.08128e-13)
(499.107 5.61934e-14 -1.67194e-14)
(502.597 -8.13009e-14 5.80399e-14)
(506.156 -2.2557e-14 -1.92396e-13)
(509.711 2.03418e-13 -2.97697e-13)
(513.199 -4.17301e-13 2.31975e-13)
(516.688 2.85756e-13 -4.01441e-13)
(520.23 -5.93322e-13 4.13884e-13)
(523.874 1.1606e-13 -1.75754e-13)
(527.529 -2.35677e-13 2.29357e-13)
(531.094 -7.80919e-14 1.15572e-13)
(534.661 -5.11579e-13 4.92815e-13)
(538.316 -8.92064e-14 3.19228e-14)
(542.096 -3.96792e-13 3.5721e-13)
(545.816 -4.50919e-13 4.56673e-13)
(549.45 -3.78986e-13 3.75248e-13)
(553.152 -4.51706e-13 4.4902e-13)
(557.035 -2.72705e-13 2.71257e-13)
(560.906 -2.45809e-13 2.44006e-13)
(564.626 -2.50632e-13 2.49e-13)
(568.436 -1.83857e-13 1.82226e-13)
(572.475 -2.43179e-13 2.41954e-13)
(576.446 -2.39861e-13 2.38515e-13)
(580.27 -1.60912e-13 1.59789e-13)
(584.287 -1.74999e-13 1.73352e-13)
(588.5 -1.89688e-13 1.89906e-13)
(592.468 -1.56474e-13 1.56215e-13)
(596.527 -1.17294e-13 1.17709e-13)
(600.884 -1.6653e-13 1.68085e-13)
(605.049 -1.19005e-13 1.19002e-13)
(609.206 -7.56026e-14 7.60725e-14)
(613.711 -6.6434e-14 6.70146e-14)
(618.001 -6.46807e-14 6.52593e-14)
(622.351 -8.23247e-14 8.12017e-14)
(627.121 -9.69186e-14 9.67356e-14)
(631.414 -7.66831e-14 7.65339e-14)
(636.404 -9.09723e-14 9.0938e-14)
(640.736 -9.53975e-14 9.53411e-14)
(646.019 -7.00258e-14 7.00231e-14)
(650.349 -6.12141e-14 6.12111e-14)
(655.955 -3.34164e-14 3.33521e-14)
(660.263 -3.08218e-14 3.07665e-14)
(666.136 7.04907e-15 -7.07941e-15)
(670.485 -1.5527e-14 1.5476e-14)
(676.628 -2.29689e-14 2.29554e-14)
(681.044 1.56149e-14 -1.56737e-14)
(687.494 -1.36582e-14 1.36983e-14)
(691.975 3.97239e-15 -4.06806e-15)
(698.765 -9.57484e-15 9.58215e-15)
(703.308 -2.56184e-16 2.53095e-16)
(710.444 1.74624e-14 -1.74457e-14)
(715.058 9.19591e-15 -9.17886e-15)
(722.504 2.89306e-14 -2.88892e-14)
(727.224 1.32109e-16 -1.57964e-16)
(734.884 2.14496e-14 -2.13617e-14)
(739.783 -2.32099e-14 2.31359e-14)
(747.489 1.98469e-14 -1.96824e-14)
(752.696 -6.735e-15 6.84121e-15)
(760.319 -8.50763e-15 8.69033e-15)
(765.976 9.48395e-15 -8.94866e-15)
(773.518 -1.5494e-15 1.5494e-15)
(779.643 7.20291e-15 -7.20291e-15)
(787.035 6.66562e-15 -6.66562e-15)
(793.728 -6.52572e-15 6.52572e-15)
(801.078 -7.21669e-16 7.21669e-16)
(808.385 -2.25791e-14 2.25791e-14)
(815.921 -2.58145e-14 2.58145e-14)
(823.556 -2.08909e-14 2.08909e-14)
(831.322 -2.63478e-14 2.63478e-14)
(839.219 -3.16508e-14 3.16508e-14)
(847.347 -2.68726e-14 2.68726e-14)
(856.135 -2.23117e-14 2.23117e-14)
(867.058 -1.81357e-14 1.81357e-14)
(881.106 -1.71775e-14 1.71775e-14)
(884.888 -3.03735e-15 3.03735e-15)
(876.941 2.9269e-16 -2.9269e-16)
(834.301 1.25711e-15 -1.25711e-15)
(676.978 -1.33947e-14 1.33947e-14)
(249.878 -2.06489e-14 2.06489e-14)
(23.3936 -2.27392e-14 2.27392e-14)
(1.18872 -2.77325e-14 2.77325e-14)
(0.0567275 -1.83885e-14 1.83885e-14)
(0.0026852 -8.55009e-15 8.55009e-15)
(0.000126491 -1.64357e-16 1.64357e-16)
(5.93539e-06 0 0)
(2.77435e-07 0 0)
(1.29294e-08 0 0)
(6.15926e-10 0 0)
(2.76035e-12 -9.47704e-16 9.47704e-16)
(-6.73552e-11 -6.44197e-15 6.44197e-15)
(7.96089e-11 -2.96053e-14 2.96053e-14)
(8.61876e-11 -2.57239e-14 2.57239e-14)
(4.42774e-11 -2.02829e-14 2.02829e-14)
(-5.7522e-12 2.43984e-14 -2.43984e-14)
(-1.86301e-12 3.28023e-14 -3.28023e-14)
(7.58098e-12 2.69345e-14 -2.69345e-14)
(5.80844e-12 1.14578e-14 -1.14578e-14)
(-1.78202e-11 8.29281e-15 -8.29281e-15)
(-1.84606e-11 9.61194e-15 -9.61194e-15)
(1.46769e-11 -5.64759e-15 5.64759e-15)
(1.15491e-11 -8.02135e-16 8.02135e-16)
(5.19982e-12 0 0)
(1.30035e-11 0 0)
(7.42422e-12 0 0)
(-3.12229e-11 0 0)
(-2.9757e-11 -2.25666e-15 2.25666e-15)
(-1.43186e-11 -6.82612e-15 6.82612e-15)
(-2.73684e-11 -1.37551e-14 1.37551e-14)
(-2.00844e-11 -9.01939e-15 9.01939e-15)
(-1.39555e-11 -1.29851e-15 1.29851e-15)
(-1.92411e-11 0 0)
(-1.0025e-11 0 0)
(1.17048e-11 3.91409e-15 -3.91409e-15)
(4.37126e-11 9.67726e-15 -9.67726e-15)
(5.4436e-11 2.34868e-14 -2.34868e-14)
(1.3953e-11 2.28697e-14 -2.28697e-14)
(-1.43113e-12 2.3895e-14 -2.3895e-14)
(-3.98204e-12 1.65631e-14 -1.65631e-14)
(-1.487e-11 1.10869e-14 -1.10869e-14)
(-4.63377e-12 5.43705e-15 -5.43705e-15)
(-7.70022e-12 2.24757e-15 -2.24757e-15)
(2.93352e-12 0 0)
(2.29397e-12 0 0)
(-1.98329e-11 -1.26763e-15 1.26763e-15)
(-1.61167e-11 -5.19823e-15 5.19823e-15)
(-1.50522e-11 -1.30026e-14 1.30026e-14)
(1.49783e-11 -2.80762e-15 2.80762e-15)
(2.61462e-11 0 0)
(2.52012e-11 0 0)
(1.86971e-11 2.82539e-16 -2.82539e-16)
(4.50114e-13 4.89122e-15 -4.89122e-15)
(-8.38049e-12 9.64534e-15 -9.64534e-15)
(-7.22609e-12 1.38596e-14 -1.38596e-14)
(4.16688e-12 3.52278e-15 -3.52278e-15)
(-1.67869e-11 -6.38488e-15 6.38488e-15)
(-1.42054e-11 -7.40041e-15 7.40041e-15)
(2.9638e-11 -5.64569e-15 5.64569e-15)
(2.60544e-11 -5.68557e-15 5.68557e-15)
(-3.33373e-11 -7.52451e-15 7.52451e-15)
(-5.88673e-11 -2.56393e-15 2.56393e-15)
(-4.70027e-11 0 0)
(-2.23732e-11 2.36774e-15 -2.36774e-15)
(-6.15109e-12 -6.17147e-15 6.17147e-15)
(6.0549e-12 -1.05313e-15 1.05313e-15)
(3.39459e-12 1.22327e-15 -1.22327e-15)
(2.49803e-11 3.36908e-15 -3.36908e-15)
(4.16693e-11 -2.30794e-15 2.30794e-15)
(3.35315e-11 -2.23913e-16 2.23913e-16)
(1.07202e-11 0 0)
(1.01561e-11 -3.52363e-15 3.52363e-15)
(-5.76958e-12 -5.79969e-15 5.79969e-15)
(-2.27456e-11 -2.8782e-15 2.8782e-15)
(-1.38636e-11 -5.76042e-15 5.76042e-15)
(-2.30013e-12 0 0)
(2.0197e-11 3.81447e-15 -3.81447e-15)
(3.62712e-11 0 0)
(2.18624e-11 0 0)
(-5.46727e-12 -4.00242e-15 4.00242e-15)
(-8.73594e-12 -9.90907e-15 9.90907e-15)
(-3.55115e-12 -1.1043e-14 1.1043e-14)
(5.82114e-11 -3.88066e-15 3.88066e-15)
(1.12063e-10 0 0)
(7.38123e-11 0 0)
(-2.16502e-11 0 0)
(-7.51417e-11 4.43353e-15 -4.43353e-15)
(-9.10858e-11 1.88186e-15 -1.88186e-15)
(-5.73349e-11 0 0)
(-4.28744e-11 -8.30412e-15 8.30412e-15)
(-3.17938e-11 -2.49361e-14 2.49361e-14)
(9.26904e-12 -3.94002e-14 3.94002e-14)
(-4.86375e-12 -4.55622e-14 4.55622e-14)
(-4.26357e-11 -4.9491e-14 4.9491e-14)
(4.80701e-11 -4.02388e-14 4.02388e-14)
(5.69346e-11 -4.03213e-14 4.03213e-14)
(2.58284e-11 -3.49041e-14 3.49041e-14)
(-3.85638e-11 -1.71089e-14 1.71089e-14)
(-4.49755e-11 -5.7605e-15 5.7605e-15)
(-3.62881e-11 0 0)
(-7.7673e-12 2.43545e-15 -2.43545e-15)
(3.23733e-11 0 0)
(1.34927e-11 0 0)
(-2.67623e-11 0 0)
(-2.69079e-11 -3.87859e-15 3.87859e-15)
(4.1795e-12 -9.7783e-15 9.7783e-15)
(6.55384e-12 -1.34019e-14 1.34019e-14)
(9.53714e-12 -2.94274e-15 2.94274e-15)
(2.34714e-11 0 0)
(3.68623e-11 0 0)
(4.06819e-11 0 0)
(2.01355e-11 0 0)
(-6.16893e-12 -9.92158e-18 9.92158e-18)
(4.1248e-12 -3.88132e-15 3.88132e-15)
(-2.08155e-11 0 0)
(-3.36958e-11 5.6143e-16 -5.6143e-16)
(-9.64938e-12 3.67804e-15 -3.67804e-15)
(1.89592e-11 2.27762e-15 -2.27762e-15)
(2.64863e-11 3.00542e-15 -3.00542e-15)
(2.51301e-11 -3.62742e-15 3.62742e-15)
(-1.44091e-12 -1.10178e-14 1.10178e-14)
(-1.12906e-11 -1.42399e-14 1.42399e-14)
(-6.38681e-12 -1.58841e-14 1.58841e-14)
(-1.61821e-11 -1.38488e-14 1.38488e-14)
(-1.41344e-11 -2.494e-15 2.494e-15)
(-6.21154e-12 0 0)
(8.66982e-12 8.95263e-16 -8.95263e-16)
(-1.50814e-11 1.01022e-16 -1.01022e-16)
(-3.84559e-11 -4.01898e-15 4.01898e-15)
(-2.74033e-11 -1.56233e-14 1.56233e-14)
(-9.17642e-12 -2.10654e-14 2.10654e-14)
(1.08994e-11 -1.94652e-14 1.94652e-14)
(2.23084e-11 -1.85195e-14 1.85195e-14)
(1.75854e-11 -1.17621e-14 1.17621e-14)
(3.08817e-11 -8.20213e-15 8.20213e-15)
(2.88765e-11 -7.98159e-15 7.98159e-15)
(9.67811e-12 -4.14768e-15 4.14768e-15)
(1.75979e-11 -5.01967e-15 5.01967e-15)
(1.58669e-11 0 0)
(2.85301e-12 2.42738e-15 -2.42738e-15)
(-2.66578e-11 0 0)
(-4.73294e-11 0 0)
(-3.18001e-11 -1.90706e-15 1.90706e-15)
(-1.45781e-11 -1.13442e-14 1.13442e-14)
(-1.3608e-11 -1.93582e-14 1.93582e-14)
(1.07005e-11 -2.34572e-14 2.34572e-14)
(1.49184e-11 -2.35128e-14 2.35128e-14)
(1.24271e-11 -2.03529e-14 2.03529e-14)
(2.6355e-11 -7.6603e-15 7.6603e-15)
(3.52106e-11 -1.46985e-15 1.46985e-15)
(2.19062e-11 0 0)
(-4.0341e-12 3.80595e-15 -3.80595e-15)
(-2.69995e-11 1.33235e-15 -1.33235e-15)
(-4.19539e-11 3.15116e-15 -3.15116e-15)
(-2.71403e-11 1.68418e-16 -1.68418e-16)
(-1.76978e-12 0 0)
(-4.08885e-11 -2.59104e-15 2.59104e-15)
(-5.23375e-11 0 0)
(-3.2484e-11 0 0)
(-5.79227e-12 1.28673e-15 -1.28673e-15)
(4.86734e-11 7.43747e-15 -7.43747e-15)
(6.77452e-11 7.87988e-15 -7.87988e-15)
(4.72601e-11 4.15892e-15 -4.15892e-15)
(3.17078e-11 1.55137e-16 -1.55137e-16)
(2.33252e-11 0 0)
(-1.692e-11 5.73342e-15 -5.73342e-15)
(-3.7885e-12 1.87085e-16 -1.87085e-16)
(-3.98636e-12 0 0)
(-3.50078e-11 0 0)
(-2.78694e-11 0 0)
(2.26562e-11 0 0)
(2.32894e-11 0 0)
(-1.02282e-11 0 0)
(-4.54787e-11 0 0)
(6.13609e-11 6.50712e-15 -6.50712e-15)
(7.0922e-11 1.7463e-14 -1.7463e-14)
(3.60115e-11 2.62999e-14 -2.62999e-14)
(2.78371e-11 3.71477e-14 -3.71477e-14)
(4.76179e-11 4.02671e-14 -4.02671e-14)
(-5.12806e-11 7.63783e-15 -7.63783e-15)
(-5.59011e-11 4.07346e-15 -4.07346e-15)
(-4.50211e-11 3.87143e-16 -3.87143e-16)
(-3.94482e-11 0 0)
(-4.09947e-11 0 0)
(-2.7044e-11 0 0)
(-1.89852e-11 0 0)
(-3.30156e-11 0 0)
(-1.89164e-11 0 0)
(2.24454e-11 0 0)
(2.74018e-11 -1.29453e-16 1.29453e-16)
(6.79027e-12 -4.06325e-16 4.06325e-16)
(-1.02198e-11 4.19617e-15 -4.19617e-15)
(-1.56004e-11 0 0)
(-1.92789e-11 -1.61663e-15 1.61663e-15)
(-2.37835e-11 -7.72215e-15 7.72215e-15)
(3.46049e-11 -4.66461e-15 4.66461e-15)
(4.17981e-11 -6.40109e-15 6.40109e-15)
(2.17774e-11 -4.71953e-15 4.71953e-15)
(-2.02916e-11 -7.13681e-15 7.13681e-15)
(6.51038e-12 -4.42672e-15 4.42672e-15)
(4.42291e-11 -3.96291e-15 3.96291e-15)
(2.8591e-11 3.97138e-16 -3.97138e-16)
(8.79936e-12 1.3425e-15 -1.3425e-15)
(1.82575e-11 3.30456e-15 -3.30456e-15)
(2.83586e-11 1.32316e-15 -1.32316e-15)
(1.73637e-12 2.29826e-15 -2.29826e-15)
(-2.92792e-11 8.49637e-16 -8.49637e-16)
(-9.42571e-12 1.08244e-15 -1.08244e-15)
(3.17826e-11 -2.80441e-15 2.80441e-15)
(4.28349e-11 -2.07253e-15 2.07253e-15)
(2.13789e-11 -4.02665e-15 4.02665e-15)
(-1.56812e-11 -9.69837e-15 9.69837e-15)
(-2.16448e-11 -1.43919e-14 1.43919e-14)
(-1.15944e-11 -1.20905e-14 1.20905e-14)
(-3.38034e-11 -2.85812e-15 2.85812e-15)
(-1.52421e-11 7.6335e-15 -7.6335e-15)
(-1.25741e-11 1.39209e-14 -1.39209e-14)
(-5.64792e-11 1.02237e-14 -1.02237e-14)
(-1.70369e-11 7.55764e-15 -7.55764e-15)
(2.0394e-11 7.16585e-15 -7.16585e-15)
(5.01996e-12 9.02789e-15 -9.02789e-15)
(-1.76551e-11 1.12865e-14 -1.12865e-14)
(3.21216e-13 6.838e-15 -6.838e-15)
(1.88231e-11 1.86853e-16 -1.86853e-16)
(8.44425e-12 -7.82498e-15 7.82498e-15)
(6.30381e-12 -7.16475e-15 7.16475e-15)
(-6.49023e-12 -7.18245e-15 7.18245e-15)
(-6.8634e-12 -1.14938e-14 1.14938e-14)
(8.77679e-12 -1.53131e-14 1.53131e-14)
(7.74741e-12 -2.09614e-14 2.09614e-14)
(1.45021e-11 -2.87361e-14 2.87361e-14)
(-8.11068e-12 -3.41858e-14 3.41858e-14)
(-2.28147e-11 -3.57162e-14 3.57162e-14)
(-1.99548e-11 -3.10001e-14 3.10001e-14)
(-8.1392e-12 -2.02764e-14 2.02764e-14)
(1.58845e-11 -1.33754e-14 1.33754e-14)
(1.25518e-11 -8.60344e-15 8.60344e-15)
(2.46209e-11 -1.98432e-15 1.98432e-15)
(3.4379e-11 0 0)
(2.02828e-11 0 0)
(-6.5016e-12 0 0)
(-3.37432e-11 0 0)
(-3.09189e-11 0 0)
(1.86478e-11 1.54762e-15 -1.54762e-15)
(9.33742e-12 3.99898e-15 -3.99898e-15)
(9.79823e-12 -6.20455e-15 6.20455e-15)
(1.29014e-11 -1.36134e-14 1.36134e-14)
(1.19435e-11 -1.23422e-14 1.23422e-14)
(1.06674e-11 -1.35139e-14 1.35139e-14)
(-5.13117e-12 -6.56925e-15 6.56925e-15)
(-1.18105e-11 1.22612e-15 -1.22612e-15)
(-2.88599e-11 7.29058e-15 -7.29058e-15)
(-3.75745e-11 1.57056e-15 -1.57056e-15)
(-4.9795e-12 0 0)
(3.79983e-11 0 0)
(4.45561e-11 -6.64828e-16 6.64828e-16)
(1.304e-11 -2.92579e-15 2.92579e-15)
(-1.62502e-11 -7.75591e-15 7.75591e-15)
(-1.71643e-11 -4.49933e-15 4.49933e-15)
(-1.43921e-11 -9.14595e-15 9.14595e-15)
(-1.50973e-11 -1.56715e-14 1.56715e-14)
(-1.35381e-11 -2.39688e-14 2.39688e-14)
(-1.96494e-11 -2.77961e-14 2.77961e-14)
(-2.97287e-11 -2.52794e-14 2.52794e-14)
(-9.12542e-12 -1.91602e-14 1.91602e-14)
(-8.7395e-12 -1.0728e-14 1.0728e-14)
(1.33748e-11 -6.02574e-15 6.02574e-15)
(3.00071e-11 -5.33809e-15 5.33809e-15)
(2.15604e-11 -6.53954e-15 6.53954e-15)
(6.19925e-11 -9.29668e-15 9.29668e-15)
(7.45988e-11 -2.45772e-15 2.45772e-15)
(6.17171e-11 -6.42357e-16 6.42357e-16)
)
;

boundaryField
{
    wedge0
    {
        type            wedge;
    }
    wedge1
    {
        type            wedge;
    }
    wedge2
    {
        type            wedge;
    }
    wedge3
    {
        type            wedge;
    }
    outlet
    {
        type            zeroGradient;
    }
    defaultFaces
    {
        type            empty;
    }
}


// ************************************************************************* //
