/*--------------------------------*- C++ -*----------------------------------*\
| =========                 |                                                 |
| \\      /  F ield         | OpenFOAM: The Open Source CFD Toolbox           |
|  \\    /   O peration     | Version:  2312                                  |
|   \\  /    A nd           | Website:  www.openfoam.com                      |
|    \\/     M anipulation  |                                                 |
\*---------------------------------------------------------------------------*/
FoamFile
{
    version     2.0;
    format      ascii;
    arch        "LSB;label=32;scalar=64";
    class       volScalarField;
    location    "0.072";
    object      T;
}
// * * * * * * * * * * * * * * * * * * * * * * * * * * * * * * * * * * * * * //

dimensions      [0 0 0 1 0 0 0];

internalField   nonuniform List<scalar> 
100
(
214.484
223.809
217.434
228.267
219.096
230.586
219.861
230.956
220.136
229.775
220.128
227.59
219.881
224.968
219.369
222.362
218.593
220.039
217.612
218.086
216.52
216.478
215.41
215.138
214.343
213.99
213.344
212.974
212.413
212.051
211.543
211.195
210.724
210.391
209.949
209.632
209.216
208.917
208.527
208.25
207.888
207.636
207.308
207.086
206.797
206.613
206.374
206.242
206.074
206.028
205.987
206.127
206.389
207.011
208.03
209.728
212.056
214.993
218.066
220.997
223.369
225.241
226.526
227.501
228.119
228.633
228.935
229.223
229.355
229.504
229.519
229.561
229.481
229.434
229.275
229.155
228.931
228.755
228.477
228.257
227.938
227.683
227.33
227.042
226.667
226.341
225.954
225.577
225.193
224.744
224.38
223.836
223.51
222.855
222.582
221.81
221.6
220.726
220.58
219.64
)
;

boundaryField
{
    sides
    {
        type            zeroGradient;
    }
    empty
    {
        type            empty;
    }
}


// ************************************************************************* //
