/*--------------------------------*- C++ -*----------------------------------*\
| =========                 |                                                 |
| \\      /  F ield         | OpenFOAM: The Open Source CFD Toolbox           |
|  \\    /   O peration     | Version:  2312                                  |
|   \\  /    A nd           | Website:  www.openfoam.com                      |
|    \\/     M anipulation  |                                                 |
\*---------------------------------------------------------------------------*/
FoamFile
{
    version     2.0;
    format      ascii;
    arch        "LSB;label=32;scalar=64";
    class       volScalarField;
    location    "0.072";
    object      thermo:e;
}
// * * * * * * * * * * * * * * * * * * * * * * * * * * * * * * * * * * * * * //

dimensions      [0 2 -2 0 0 0 0];

internalField   nonuniform List<scalar> 
100
(
154257
160964
156378
164169
157574
165837
158124
166103
158321
165254
158316
163683
158138
161797
157770
159923
157212
158252
156506
156848
155721
155691
154923
154727
154155
153901
153437
153171
152768
152507
152142
151891
151553
151313
150995
150767
150468
150253
149973
149773
149513
149332
149096
148936
148728
148596
148424
148330
148208
148175
148146
148246
148435
148882
149616
150837
152511
154623
156833
158941
160647
161994
162917
163619
164063
164433
164650
164857
164952
165059
165070
165100
165043
165009
164895
164808
164647
164520
164321
164163
163933
163749
163496
163289
163019
162784
162506
162235
161959
161636
161374
160983
160748
160277
160081
159526
159375
158746
158641
157965
)
;

boundaryField
{
    sides
    {
        type            zeroGradient;
    }
    empty
    {
        type            empty;
    }
}


// ************************************************************************* //
