/*--------------------------------*- C++ -*----------------------------------*\
| =========                 |                                                 |
| \\      /  F ield         | OpenFOAM: The Open Source CFD Toolbox           |
|  \\    /   O peration     | Version:  2312                                  |
|   \\  /    A nd           | Website:  www.openfoam.com                      |
|    \\/     M anipulation  |                                                 |
\*---------------------------------------------------------------------------*/
FoamFile
{
    version     2.0;
    format      ascii;
    arch        "LSB;label=32;scalar=64";
    class       volVectorField;
    location    "0.072";
    object      U;
}
// * * * * * * * * * * * * * * * * * * * * * * * * * * * * * * * * * * * * * //

dimensions      [0 1 -1 0 0 0 0];

internalField   nonuniform List<vector> 
100
(
(183.582 0 0)
(186.569 0 0)
(188.204 0 0)
(190.727 0 0)
(192.389 0 0)
(194.513 0 0)
(196.298 0 0)
(197.973 0 0)
(199.898 0 0)
(201.167 0 0)
(203.168 0 0)
(204.148 0 0)
(206.109 0 0)
(206.945 0 0)
(208.757 0 0)
(209.565 0 0)
(211.163 0 0)
(212.005 0 0)
(213.383 0 0)
(214.264 0 0)
(215.454 0 0)
(216.352 0 0)
(217.399 0 0)
(218.285 0 0)
(219.226 0 0)
(220.078 0 0)
(220.939 0 0)
(221.744 0 0)
(222.538 0 0)
(223.29 0 0)
(224.022 0 0)
(224.718 0 0)
(225.39 0 0)
(226.029 0 0)
(226.641 0 0)
(227.221 0 0)
(227.771 0 0)
(228.289 0 0)
(228.777 0 0)
(229.231 0 0)
(229.654 0 0)
(230.043 0 0)
(230.399 0 0)
(230.719 0 0)
(231.005 0 0)
(231.248 0 0)
(231.444 0 0)
(231.576 0 0)
(231.615 0 0)
(231.5 0 0)
(231.124 0 0)
(230.289 0 0)
(228.673 0 0)
(225.802 0 0)
(221.141 0 0)
(214.354 0 0)
(205.667 0 0)
(196.018 0 0)
(186.706 0 0)
(178.819 0 0)
(172.846 0 0)
(168.725 0 0)
(166.081 0 0)
(164.485 0 0)
(163.573 0 0)
(163.087 0 0)
(162.86 0 0)
(162.787 0 0)
(162.807 0 0)
(162.881 0 0)
(162.989 0 0)
(163.117 0 0)
(163.259 0 0)
(163.41 0 0)
(163.568 0 0)
(163.732 0 0)
(163.9 0 0)
(164.075 0 0)
(164.255 0 0)
(164.441 0 0)
(164.634 0 0)
(164.834 0 0)
(165.041 0 0)
(165.255 0 0)
(165.48 0 0)
(165.708 0 0)
(165.954 0 0)
(166.198 0 0)
(166.469 0 0)
(166.731 0 0)
(167.032 0 0)
(167.317 0 0)
(167.654 0 0)
(167.97 0 0)
(168.347 0 0)
(168.701 0 0)
(169.117 0 0)
(169.514 0 0)
(169.966 0 0)
(170.399 0 0)
)
;

boundaryField
{
    sides
    {
        type            mywaveTransmissive;
        gamma           1.4;
        value           nonuniform List<vector> 2((170.419 0 0) (185.278 0 0));
    }
    empty
    {
        type            empty;
    }
}


// ************************************************************************* //
