/*--------------------------------*- C++ -*----------------------------------*\
| =========                 |                                                 |
| \\      /  F ield         | OpenFOAM: The Open Source CFD Toolbox           |
|  \\    /   O peration     | Version:  2312                                  |
|   \\  /    A nd           | Website:  www.openfoam.com                      |
|    \\/     M anipulation  |                                                 |
\*---------------------------------------------------------------------------*/
FoamFile
{
    version     2.0;
    format      ascii;
    arch        "LSB;label=32;scalar=64";
    class       volScalarField;
    location    "0.016";
    object      p;
}
// * * * * * * * * * * * * * * * * * * * * * * * * * * * * * * * * * * * * * //

dimensions      [1 -1 -2 0 0 0 0];

internalField   nonuniform List<scalar> 
100
(
83351.7
82333.5
81111.6
79933.3
78707.5
77474.3
76226.3
74970.2
73707.5
72440.4
71170.4
69899.1
68627.9
67358.4
66092
64830.3
63574.7
62327
61088.3
59861
58644
57445.2
56248
55096.5
53894.7
52843.6
51563.7
50713
49261
48662.5
47085.9
46572
45130.7
44443.8
43293.2
42430.1
41462.6
40563
39671
38802.2
37955.1
37130.7
36330
35554.4
34804.8
34083.1
33391.7
32733.7
32112.3
31531.6
30995.5
30508.8
30076.2
29702.5
29390
29138.3
28944.3
28802.7
28705.4
28641.5
28600.5
28575.8
28564
28560.6
28558.2
28552
28544.4
28542.5
28549.3
28558.4
28559.3
28548.8
28535.6
28532.6
28545.1
28563.2
28573.3
28558.6
28543.2
28502.9
28541.6
28490.6
28655.4
28489.1
28789.6
28426.2
28894.3
28514
29143.1
29075.6
29705.1
29952.9
30367.3
30590.4
30736.1
30869.3
30849.1
31099.1
30975
31716.8
)
;

boundaryField
{
    sides
    {
        type            zeroGradient;
    }
    empty
    {
        type            empty;
    }
}


// ************************************************************************* //
