/*--------------------------------*- C++ -*----------------------------------*\
| =========                 |                                                 |
| \\      /  F ield         | OpenFOAM: The Open Source CFD Toolbox           |
|  \\    /   O peration     | Version:  2312                                  |
|   \\  /    A nd           | Website:  www.openfoam.com                      |
|    \\/     M anipulation  |                                                 |
\*---------------------------------------------------------------------------*/
FoamFile
{
    version     2.0;
    format      ascii;
    arch        "LSB;label=32;scalar=64";
    class       volScalarField;
    location    "0.016";
    object      rho;
}
// * * * * * * * * * * * * * * * * * * * * * * * * * * * * * * * * * * * * * //

dimensions      [1 -3 0 0 0 0 0];

internalField   nonuniform List<scalar> 
100
(
1.00664
1.00148
0.993738
0.984537
0.974319
0.963573
0.952501
0.941236
0.929834
0.918328
0.906737
0.895077
0.883358
0.871594
0.859796
0.847977
0.836152
0.824333
0.812535
0.800772
0.789054
0.777398
0.765811
0.7543
0.742904
0.731531
0.720438
0.709121
0.698448
0.687231
0.676756
0.666117
0.65537
0.6455
0.634841
0.62509
0.615046
0.605366
0.595759
0.586343
0.577121
0.568094
0.559265
0.550648
0.542276
0.534187
0.526406
0.518959
0.51188
0.505225
0.499069
0.493488
0.488536
0.484243
0.480627
0.477703
0.475459
0.473822
0.472678
0.47193
0.471495
0.471229
0.470949
0.470609
0.470379
0.470457
0.470739
0.470806
0.470343
0.469587
0.469209
0.469643
0.470523
0.470875
0.470015
0.46833
0.467095
0.467477
0.469365
0.471426
0.471453
0.46903
0.464316
0.461086
0.46021
0.465156
0.473038
0.482419
0.488734
0.486721
0.475948
0.454259
0.426193
0.394683
0.364099
0.336738
0.314203
0.29645
0.283855
0.274942
)
;

boundaryField
{
    sides
    {
        type            zeroGradient;
    }
    empty
    {
        type            empty;
    }
}


// ************************************************************************* //
