/*--------------------------------*- C++ -*----------------------------------*\
| =========                 |                                                 |
| \\      /  F ield         | OpenFOAM: The Open Source CFD Toolbox           |
|  \\    /   O peration     | Version:  2312                                  |
|   \\  /    A nd           | Website:  www.openfoam.com                      |
|    \\/     M anipulation  |                                                 |
\*---------------------------------------------------------------------------*/
FoamFile
{
    version     2.0;
    format      ascii;
    arch        "LSB;label=32;scalar=64";
    class       volScalarField;
    location    "0.016";
    object      T;
}
// * * * * * * * * * * * * * * * * * * * * * * * * * * * * * * * * * * * * * //

dimensions      [0 0 0 1 0 0 0];

internalField   nonuniform List<scalar> 
100
(
287.808
285.757
283.71
282.201
280.788
279.471
278.165
276.856
275.531
274.187
272.823
271.44
270.04
268.622
267.188
265.74
264.279
262.807
261.324
259.836
258.333
256.847
255.299
253.889
252.16
251.086
248.777
248.578
245.15
246.125
241.837
243.018
239.359
239.32
237.038
235.936
234.322
232.903
231.454
230.021
228.595
227.183
225.794
224.431
223.091
221.773
220.486
219.242
218.056
216.932
215.874
214.888
213.988
213.202
212.547
212.017
211.599
211.291
211.087
210.951
210.843
210.78
210.819
210.946
211.031
210.95
210.767
210.724
210.981
211.388
211.565
211.292
210.8
210.62
211.098
211.991
212.627
212.344
211.376
210.155
210.427
211.137
214.514
214.763
217.442
212.415
212.315
205.446
207.265
207.641
216.938
229.192
247.665
269.401
293.422
318.639
341.268
364.636
379.296
400.969
)
;

boundaryField
{
    sides
    {
        type            zeroGradient;
    }
    empty
    {
        type            empty;
    }
}


// ************************************************************************* //
