/*--------------------------------*- C++ -*----------------------------------*\
| =========                 |                                                 |
| \\      /  F ield         | OpenFOAM: The Open Source CFD Toolbox           |
|  \\    /   O peration     | Version:  2312                                  |
|   \\  /    A nd           | Website:  www.openfoam.com                      |
|    \\/     M anipulation  |                                                 |
\*---------------------------------------------------------------------------*/
FoamFile
{
    version     2.0;
    format      ascii;
    arch        "LSB;label=32;scalar=64";
    class       volScalarField;
    location    "0.016";
    object      thermo:e;
}
// * * * * * * * * * * * * * * * * * * * * * * * * * * * * * * * * * * * * * //

dimensions      [0 2 -2 0 0 0 0];

internalField   nonuniform List<scalar> 
100
(
206992
205516
204044
202959
201943
200995
200056
199115
198162
197195
196214
195220
194212
193193
192162
191120
190069
189011
187944
186874
185793
184724
183611
182597
181353
180581
178921
178777
176312
177013
173929
174778
172147
172119
170478
169685
168524
167504
166462
165431
164406
163390
162391
161411
160447
159499
158574
157679
156826
156017
155257
154547
153900
153335
152864
152482
152182
151961
151814
151716
151638
151593
151621
151712
151773
151715
151584
151552
151738
152030
152158
151962
151607
151478
151821
152464
152921
152718
152021
151143
151339
151850
154279
154458
156384
152769
152697
147757
149065
149335
156022
164835
178120
193753
211029
229165
245440
262246
272790
288377
)
;

boundaryField
{
    sides
    {
        type            zeroGradient;
    }
    empty
    {
        type            empty;
    }
}


// ************************************************************************* //
