/*--------------------------------*- C++ -*----------------------------------*\
| =========                 |                                                 |
| \\      /  F ield         | OpenFOAM: The Open Source CFD Toolbox           |
|  \\    /   O peration     | Version:  2312                                  |
|   \\  /    A nd           | Website:  www.openfoam.com                      |
|    \\/     M anipulation  |                                                 |
\*---------------------------------------------------------------------------*/
FoamFile
{
    version     2.0;
    format      ascii;
    arch        "LSB;label=32;scalar=64";
    class       volVectorField;
    location    "0.016";
    object      U;
}
// * * * * * * * * * * * * * * * * * * * * * * * * * * * * * * * * * * * * * //

dimensions      [0 1 -1 0 0 0 0];

internalField   nonuniform List<vector> 
100
(
(35.7491 0 0)
(39.4512 0 0)
(43.5534 0 0)
(47.7518 0 0)
(52.1313 0 0)
(56.6095 0 0)
(61.1765 0 0)
(65.8086 0 0)
(70.4939 0 0)
(75.2215 0 0)
(79.9832 0 0)
(84.7716 0 0)
(89.5807 0 0)
(94.4056 0 0)
(99.2424 0 0)
(104.088 0 0)
(108.941 0 0)
(113.799 0 0)
(118.663 0 0)
(123.532 0 0)
(128.403 0 0)
(133.288 0 0)
(138.157 0 0)
(143.081 0 0)
(147.911 0 0)
(152.931 0 0)
(157.656 0 0)
(162.81 0 0)
(167.465 0 0)
(172.588 0 0)
(177.455 0 0)
(182.236 0 0)
(187.455 0 0)
(192.03 0 0)
(197.215 0 0)
(201.953 0 0)
(206.923 0 0)
(211.763 0 0)
(216.624 0 0)
(221.453 0 0)
(226.246 0 0)
(230.996 0 0)
(235.693 0 0)
(240.329 0 0)
(244.889 0 0)
(249.351 0 0)
(253.69 0 0)
(257.881 0 0)
(261.893 0 0)
(265.693 0 0)
(269.237 0 0)
(272.476 0 0)
(275.36 0 0)
(277.853 0 0)
(279.937 0 0)
(281.61 0 0)
(282.885 0 0)
(283.804 0 0)
(284.436 0 0)
(284.852 0 0)
(285.098 0 0)
(285.212 0 0)
(285.263 0 0)
(285.325 0 0)
(285.418 0 0)
(285.478 0 0)
(285.434 0 0)
(285.313 0 0)
(285.246 0 0)
(285.336 0 0)
(285.528 0 0)
(285.633 0 0)
(285.509 0 0)
(285.226 0 0)
(285.032 0 0)
(285.137 0 0)
(285.519 0 0)
(285.868 0 0)
(285.914 0 0)
(285.433 0 0)
(284.889 0 0)
(284.287 0 0)
(284.641 0 0)
(285.026 0 0)
(286.254 0 0)
(286.359 0 0)
(285.884 0 0)
(283.797 0 0)
(279.974 0 0)
(275.694 0 0)
(270.201 0 0)
(265.803 0 0)
(261.986 0 0)
(259.854 0 0)
(258.795 0 0)
(258.927 0 0)
(259.117 0 0)
(259.789 0 0)
(258.601 0 0)
(257.157 0 0)
)
;

boundaryField
{
    sides
    {
        type            mywaveTransmissive;
        gamma           1.4;
        value           nonuniform List<vector> 2((257.859 0 0) (34.1187 0 0));
    }
    empty
    {
        type            empty;
    }
}


// ************************************************************************* //
