/*--------------------------------*- C++ -*----------------------------------*\
| =========                 |                                                 |
| \\      /  F ield         | OpenFOAM: The Open Source CFD Toolbox           |
|  \\    /   O peration     | Version:  2312                                  |
|   \\  /    A nd           | Website:  www.openfoam.com                      |
|    \\/     M anipulation  |                                                 |
\*---------------------------------------------------------------------------*/
FoamFile
{
    version     2.0;
    format      ascii;
    arch        "LSB;label=32;scalar=64";
    class       volScalarField;
    location    "0.032";
    object      p;
}
// * * * * * * * * * * * * * * * * * * * * * * * * * * * * * * * * * * * * * //

dimensions      [1 -1 -2 0 0 0 0];

internalField   nonuniform List<scalar> 
100
(
45826.5
45520.3
45046.6
44655.9
44159.5
43832.4
43262.4
43036.1
42368.3
42244.4
41508.3
41424.7
40706.6
40568.9
39950
39706.7
39201.7
38871.2
38441.3
38069.7
37673.8
37293.2
36911
36533.8
36159.6
35789.1
35422.4
35059.5
34700.7
34346
33995.6
33649.6
33308.2
32971.6
32639.9
32313.2
31992.3
31676.2
31367.5
31062.4
30768.9
30473.6
30201.6
29911.5
29672.9
29377.9
29192.1
28876.4
28768.1
28415.7
28405.1
28012.6
28100.8
27689.4
27848.2
27465.1
27642
27344.5
27480.2
27317.5
27358
27368.3
27258.6
27488.1
27154.3
27675.5
27020.6
27922.1
26859.4
28193.4
26713.2
28423.2
26653.6
28537.5
26742
28499.8
26986.3
28348.4
27330.2
28192.3
27695.9
28163
28065.7
28380.1
28570.3
29039.3
29633.4
30640
31911.5
33513.1
35101.5
36556.4
37654.7
38451.9
38920.9
39223.8
39382.3
39490.7
39532.9
39576.1
)
;

boundaryField
{
    sides
    {
        type            zeroGradient;
    }
    empty
    {
        type            empty;
    }
}


// ************************************************************************* //
