/*--------------------------------*- C++ -*----------------------------------*\
| =========                 |                                                 |
| \\      /  F ield         | OpenFOAM: The Open Source CFD Toolbox           |
|  \\    /   O peration     | Version:  2312                                  |
|   \\  /    A nd           | Website:  www.openfoam.com                      |
|    \\/     M anipulation  |                                                 |
\*---------------------------------------------------------------------------*/
FoamFile
{
    version     2.0;
    format      ascii;
    arch        "LSB;label=32;scalar=64";
    class       volScalarField;
    location    "0.032";
    object      rho;
}
// * * * * * * * * * * * * * * * * * * * * * * * * * * * * * * * * * * * * * //

dimensions      [1 -3 0 0 0 0 0];

internalField   nonuniform List<scalar> 
100
(
0.624662
0.622124
0.618947
0.61585
0.61284
0.609754
0.606867
0.603796
0.601037
0.598046
0.595355
0.592578
0.589866
0.587361
0.584619
0.58225
0.579527
0.577071
0.574329
0.571644
0.568763
0.565799
0.562682
0.559442
0.556074
0.552596
0.549024
0.545375
0.541669
0.537923
0.534155
0.530379
0.526608
0.522853
0.519124
0.515429
0.511775
0.50817
0.504616
0.501127
0.497694
0.494352
0.49106
0.487907
0.484772
0.481861
0.478904
0.476299
0.473556
0.471309
0.468858
0.46698
0.464943
0.463405
0.461913
0.460669
0.459789
0.458814
0.45851
0.457782
0.45795
0.4574
0.457961
0.457439
0.45838
0.457715
0.45903
0.458148
0.45972
0.458776
0.460286
0.459664
0.460648
0.460787
0.460894
0.462011
0.461292
0.463183
0.462175
0.464377
0.463903
0.466117
0.466945
0.469621
0.472752
0.47796
0.485902
0.497578
0.513037
0.530994
0.548799
0.564152
0.57564
0.583343
0.588202
0.591147
0.592693
0.593454
0.593927
0.594217
)
;

boundaryField
{
    sides
    {
        type            zeroGradient;
    }
    empty
    {
        type            empty;
    }
}


// ************************************************************************* //
