/*--------------------------------*- C++ -*----------------------------------*\
| =========                 |                                                 |
| \\      /  F ield         | OpenFOAM: The Open Source CFD Toolbox           |
|  \\    /   O peration     | Version:  2312                                  |
|   \\  /    A nd           | Website:  www.openfoam.com                      |
|    \\/     M anipulation  |                                                 |
\*---------------------------------------------------------------------------*/
FoamFile
{
    version     2.0;
    format      ascii;
    arch        "LSB;label=32;scalar=64";
    class       volScalarField;
    location    "0.032";
    object      thermo:e;
}
// * * * * * * * * * * * * * * * * * * * * * * * * * * * * * * * * * * * * * //

dimensions      [0 2 -2 0 0 0 0];

internalField   nonuniform List<scalar> 
100
(
183394
182912
181937
181266
180132
179702
178209
178179
176219
176583
174290
174754
172514
172664
170827
170477
169100
168388
167321
166482
165585
164771
163985
163250
162556
161903
161287
160703
160146
159613
159099
158601
158117
157642
157178
156720
156271
155825
155393
154953
154548
154099
153747
153255
153015
152409
152381
151557
151863
150718
151450
149957
151088
149371
150713
149041
150288
148987
149825
149175
149341
149577
148795
150219
148090
151152
147152
152355
146055
153624
145081
154577
144644
154821
145046
154206
146245
152999
147825
151765
149245
151042
150253
151071
151076
151883
152457
153936
155493
157775
159891
161987
163524
164781
165413
165870
166106
166349
166394
166495
)
;

boundaryField
{
    sides
    {
        type            zeroGradient;
    }
    empty
    {
        type            empty;
    }
}


// ************************************************************************* //
