/*--------------------------------*- C++ -*----------------------------------*\
| =========                 |                                                 |
| \\      /  F ield         | OpenFOAM: The Open Source CFD Toolbox           |
|  \\    /   O peration     | Version:  2312                                  |
|   \\  /    A nd           | Website:  www.openfoam.com                      |
|    \\/     M anipulation  |                                                 |
\*---------------------------------------------------------------------------*/
FoamFile
{
    version     2.0;
    format      ascii;
    arch        "LSB;label=32;scalar=64";
    class       volVectorField;
    location    "0.032";
    object      U;
}
// * * * * * * * * * * * * * * * * * * * * * * * * * * * * * * * * * * * * * //

dimensions      [0 1 -1 0 0 0 0];

internalField   nonuniform List<vector> 
100
(
(136.229 0 0)
(138.575 0 0)
(141.259 0 0)
(143.983 0 0)
(146.584 0 0)
(149.367 0 0)
(151.921 0 0)
(154.745 0 0)
(157.297 0 0)
(160.087 0 0)
(162.732 0 0)
(165.402 0 0)
(168.185 0 0)
(170.737 0 0)
(173.587 0 0)
(176.116 0 0)
(178.923 0 0)
(181.502 0 0)
(184.229 0 0)
(186.856 0 0)
(189.53 0 0)
(192.176 0 0)
(194.83 0 0)
(197.479 0 0)
(200.128 0 0)
(202.776 0 0)
(205.424 0 0)
(208.07 0 0)
(210.714 0 0)
(213.355 0 0)
(215.991 0 0)
(218.621 0 0)
(221.243 0 0)
(223.855 0 0)
(226.456 0 0)
(229.042 0 0)
(231.613 0 0)
(234.163 0 0)
(236.694 0 0)
(239.194 0 0)
(241.675 0 0)
(244.104 0 0)
(246.524 0 0)
(248.854 0 0)
(251.202 0 0)
(253.394 0 0)
(255.655 0 0)
(257.667 0 0)
(259.809 0 0)
(261.612 0 0)
(263.572 0 0)
(265.164 0 0)
(266.854 0 0)
(268.253 0 0)
(269.588 0 0)
(270.815 0 0)
(271.76 0 0)
(272.821 0 0)
(273.405 0 0)
(274.313 0 0)
(274.598 0 0)
(275.406 0 0)
(275.434 0 0)
(276.245 0 0)
(276.021 0 0)
(276.937 0 0)
(276.478 0 0)
(277.521 0 0)
(276.934 0 0)
(277.972 0 0)
(277.49 0 0)
(278.257 0 0)
(278.175 0 0)
(278.414 0 0)
(278.914 0 0)
(278.544 0 0)
(279.533 0 0)
(278.733 0 0)
(279.827 0 0)
(278.904 0 0)
(279.589 0 0)
(278.675 0 0)
(278.497 0 0)
(277.228 0 0)
(275.569 0 0)
(272.597 0 0)
(267.925 0 0)
(261.095 0 0)
(252.357 0 0)
(242.634 0 0)
(233.435 0 0)
(225.827 0 0)
(220.34 0 0)
(216.853 0 0)
(214.871 0 0)
(213.815 0 0)
(213.37 0 0)
(213.287 0 0)
(213.364 0 0)
(213.461 0 0)
)
;

boundaryField
{
    sides
    {
        type            mywaveTransmissive;
        gamma           1.4;
        value           nonuniform List<vector> 2((213.528 0 0) (135.309 0 0));
    }
    empty
    {
        type            empty;
    }
}


// ************************************************************************* //
