/*--------------------------------*- C++ -*----------------------------------*\
| =========                 |                                                 |
| \\      /  F ield         | OpenFOAM: The Open Source CFD Toolbox           |
|  \\    /   O peration     | Version:  2312                                  |
|   \\  /    A nd           | Website:  www.openfoam.com                      |
|    \\/     M anipulation  |                                                 |
\*---------------------------------------------------------------------------*/
FoamFile
{
    version     2.0;
    format      ascii;
    arch        "LSB;label=32;scalar=64";
    class       volScalarField;
    location    "0.00019";
    object      p;
}
// * * * * * * * * * * * * * * * * * * * * * * * * * * * * * * * * * * * * * //

dimensions      [1 -1 -2 0 0 0 0];

internalField   nonuniform List<scalar> 
500
(
189911
189943
189962
189976
189986
189994
190001
190007
190012
190017
190021
190025
190029
190033
190036
190039
190042
190045
190048
190051
190054
190056
190059
190062
190064
190067
190070
190072
190075
190077
190080
190082
190085
190087
190090
190092
190095
190098
190100
190103
190106
190108
190111
190114
190117
190120
190123
190126
190129
190132
190135
190138
190141
190144
190148
190151
190154
190158
190161
190165
190169
190173
190176
190180
190184
190188
190193
190197
190201
190206
190210
190215
190219
190224
190229
190234
190239
190245
190250
190255
190261
190267
190273
190279
190285
190291
190298
190304
190311
190318
190325
190333
190340
190348
190356
190364
190372
190380
190389
190398
190407
190417
190426
190436
190446
190457
190467
190478
190490
190501
190513
190526
190538
190551
190564
190578
190592
190606
190621
190636
190652
190668
190685
190702
190720
190738
190756
190775
190795
190816
190836
190858
190880
190903
190927
190951
190976
191002
191028
191056
191084
191113
191143
191174
191206
191239
191273
191308
191344
191382
191420
191460
191501
191544
191588
191633
191680
191728
191778
191829
191882
191937
191994
192053
192113
192176
192241
192308
192377
192449
192523
192599
192678
192760
192845
192933
193023
193117
193214
193314
193418
193525
193636
193751
193870
193993
194120
194252
194388
194529
194676
194827
194983
195145
195313
195486
195666
195852
196044
196244
196450
196663
196884
197113
197350
197595
197849
198112
198383
198665
198956
199258
199570
199893
200227
200573
200931
201302
201685
202082
202493
202918
203358
203813
204284
204771
205274
205796
206335
206893
207470
208066
208683
209322
209982
210664
211370
212100
212854
213634
214440
215274
216135
217026
217946
218897
219880
220896
221945
223029
224149
225306
226502
227736
229011
230328
231688
233092
234542
236039
237584
239179
240826
242525
244279
246089
247957
249884
251872
253923
256039
258221
260472
262792
265185
267653
270196
272818
275520
278306
281176
284133
287180
290318
293551
296880
300309
303839
307473
311213
315063
319025
323102
327295
331609
336045
340606
345296
350117
355072
360163
365394
370768
376286
381953
387770
393741
399867
406151
412595
419199
425964
432887
439964
447187
454540
461995
469508
477001
484356
491375
497735
502905
506028
505730
499864
485232
457533
412219
347265
268366
192121
138074
111894
103094
100744
100173
100038
100007
99999.7
99998.1
99997.7
99997.6
99997.6
99997.6
99997.6
99997.6
99997.6
99997.6
99997.6
99997.6
99997.6
99997.6
99997.6
99997.6
99997.6
99997.6
99997.6
99997.6
99997.6
99997.6
99997.6
99997.6
99997.6
99997.6
99997.6
99997.6
99997.6
99997.6
99997.6
99997.6
99997.6
99997.6
99997.6
99997.6
99997.6
99997.6
99997.6
99997.6
99997.6
99997.6
99997.6
99997.6
99997.6
99997.6
99997.6
99997.6
99997.6
99997.6
99997.6
99997.6
99997.6
99997.6
99997.6
99997.6
99997.6
99997.6
99997.6
99997.6
99997.6
99997.6
99997.6
99997.6
99997.6
99997.6
99997.6
99997.6
99997.6
99997.6
99997.6
99997.6
99997.6
99997.6
99997.6
99997.6
99997.6
99997.6
99997.6
99997.6
99997.6
99997.6
99997.6
99997.6
99997.6
99997.6
99997.6
99997.6
99997.6
99997.6
99997.6
99997.6
99997.6
99997.6
99997.6
99997.6
99997.6
99997.6
99997.6
99997.6
99997.6
99997.6
99997.6
99997.6
99997.6
99997.6
99997.6
99997.6
99997.6
99997.6
99997.6
99997.6
99997.6
99997.6
99997.6
99997.6
99997.6
99997.6
99997.6
99997.6
99997.6
99997.6
99997.6
99997.6
99997.6
99997.6
99997.6
99997.6
99997.6
99997.6
99997.6
99997.6
99997.6
99997.6
99997.6
99997.6
99997.6
99997.6
99997.6
99997.6
99997.6
99997.6
99997.6
99997.6
99997.6
99997.6
99997.6
99997.6
99997.6
99997.6
99997.6
99997.6
99997.6
99997.6
99997.6
99997.6
99997.6
99997.6
99997.6
99997.6
99997.6
)
;

boundaryField
{
    wedge0
    {
        type            wedge;
    }
    wedge1
    {
        type            wedge;
    }
    wedge2
    {
        type            wedge;
    }
    wedge3
    {
        type            wedge;
    }
    outlet
    {
        type            zeroGradient;
    }
    defaultFaces
    {
        type            empty;
    }
}


// ************************************************************************* //
