/*--------------------------------*- C++ -*----------------------------------*\
| =========                 |                                                 |
| \\      /  F ield         | OpenFOAM: The Open Source CFD Toolbox           |
|  \\    /   O peration     | Version:  2312                                  |
|   \\  /    A nd           | Website:  www.openfoam.com                      |
|    \\/     M anipulation  |                                                 |
\*---------------------------------------------------------------------------*/
FoamFile
{
    version     2.0;
    format      ascii;
    arch        "LSB;label=32;scalar=64";
    class       volScalarField;
    location    "0.00019";
    object      rho;
}
// * * * * * * * * * * * * * * * * * * * * * * * * * * * * * * * * * * * * * //

dimensions      [1 -3 0 0 0 0 0];

internalField   nonuniform List<scalar> 
500
(
0.00445137
0.00445278
0.00445485
0.00445769
0.00446135
0.00446585
0.00447121
0.00447744
0.00448453
0.00449251
0.00450138
0.00451113
0.00452179
0.00453335
0.00454582
0.00455921
0.00457353
0.00458878
0.00460498
0.00462213
0.00464025
0.00465934
0.00467941
0.00470048
0.00472256
0.00474566
0.0047698
0.00479498
0.00482123
0.00484855
0.00487697
0.00490649
0.00493715
0.00496895
0.00500192
0.00503606
0.00507142
0.00510799
0.00514582
0.00518491
0.0052253
0.005267
0.00531005
0.00535446
0.00540027
0.00544751
0.00549619
0.00554636
0.00559805
0.00565128
0.00570609
0.00576251
0.00582059
0.00588035
0.00594184
0.00600509
0.00607015
0.00613705
0.00620585
0.00627659
0.0063493
0.00642405
0.00650089
0.00657985
0.006661
0.0067444
0.00683009
0.00691814
0.0070086
0.00710155
0.00719704
0.00729514
0.00739593
0.00749946
0.00760583
0.00771509
0.00782734
0.00794265
0.00806111
0.0081828
0.00830781
0.00843624
0.00856819
0.00870374
0.00884301
0.0089861
0.00913312
0.00928418
0.00943939
0.00959889
0.00976279
0.00993123
0.0101043
0.0102822
0.0104651
0.010653
0.0108462
0.0110448
0.011249
0.0114589
0.0116747
0.0118965
0.0121247
0.0123593
0.0126006
0.0128488
0.013104
0.0133665
0.0136366
0.0139144
0.0142002
0.0144943
0.0147969
0.0151083
0.0154287
0.0157585
0.0160979
0.0164472
0.0168069
0.0171771
0.0175582
0.0179506
0.0183547
0.0187708
0.0191993
0.0196406
0.0200951
0.0205633
0.0210455
0.0215423
0.0220541
0.0225814
0.0231247
0.0236846
0.0242615
0.0248561
0.0254688
0.0261004
0.0267513
0.0274224
0.0281141
0.0288272
0.0295623
0.0303203
0.0311018
0.0319077
0.0327386
0.0335955
0.0344792
0.0353905
0.0363303
0.0372997
0.0382995
0.0393308
0.0403945
0.0414917
0.0426235
0.043791
0.0449954
0.0462379
0.0475197
0.048842
0.0502061
0.0516134
0.0530653
0.0545631
0.0561084
0.0577026
0.0593473
0.0610441
0.0627945
0.0646004
0.0664633
0.068385
0.0703675
0.0724125
0.074522
0.0766979
0.0789422
0.081257
0.0836445
0.0861068
0.0886462
0.0912649
0.0939652
0.0967496
0.0996205
0.10258
0.105632
0.108778
0.11202
0.115363
0.118807
0.122357
0.126016
0.129785
0.133669
0.13767
0.141792
0.146037
0.150409
0.154912
0.159549
0.164323
0.169238
0.174297
0.179504
0.184863
0.190378
0.196052
0.20189
0.207895
0.214071
0.220423
0.226954
0.23367
0.240573
0.247669
0.254961
0.262455
0.270154
0.278064
0.286189
0.294533
0.303102
0.3119
0.320931
0.330202
0.339716
0.349479
0.359496
0.369772
0.380311
0.39112
0.402204
0.413567
0.425215
0.437154
0.449388
0.461924
0.474767
0.487923
0.501397
0.515194
0.529321
0.543784
0.558587
0.573737
0.58924
0.605102
0.621329
0.637926
0.6549
0.672257
0.690003
0.708145
0.726687
0.745638
0.765002
0.784787
0.804998
0.825643
0.846727
0.868256
0.890238
0.912679
0.935585
0.958964
0.98282
1.00716
1.03199
1.05732
1.08316
1.10951
1.13637
1.16376
1.19167
1.22013
1.24912
1.27867
1.30877
1.33943
1.37066
1.40246
1.43484
1.46781
1.50137
1.53552
1.57027
1.60562
1.64159
1.67817
1.71538
1.7532
1.79166
1.83074
1.87046
1.91083
1.95183
1.99349
2.03579
2.07874
2.12235
2.16661
2.21154
2.25712
2.30337
2.35027
2.39784
2.44606
2.49492
2.54443
2.59455
2.64525
2.69649
2.74818
2.8002
2.85232
2.90417
2.9552
3.00455
3.05075
3.09144
3.12274
3.13845
3.12884
3.07916
2.96895
2.7753
2.48333
2.10905
1.72016
1.41547
1.24851
1.18533
1.16706
1.16244
1.16134
1.16108
1.16102
1.161
1.161
1.161
1.161
1.161
1.161
1.161
1.161
1.161
1.161
1.161
1.161
1.161
1.161
1.161
1.161
1.161
1.161
1.161
1.161
1.161
1.161
1.161
1.161
1.161
1.161
1.161
1.161
1.161
1.161
1.161
1.161
1.161
1.161
1.161
1.161
1.161
1.161
1.161
1.161
1.161
1.161
1.161
1.161
1.161
1.161
1.161
1.161
1.161
1.161
1.161
1.161
1.161
1.161
1.161
1.161
1.161
1.161
1.161
1.161
1.161
1.161
1.161
1.161
1.161
1.161
1.161
1.161
1.161
1.161
1.161
1.161
1.161
1.161
1.161
1.161
1.161
1.161
1.161
1.161
1.161
1.161
1.161
1.161
1.161
1.161
1.161
1.161
1.161
1.161
1.161
1.161
1.161
1.161
1.161
1.161
1.161
1.161
1.161
1.161
1.161
1.161
1.161
1.161
1.161
1.161
1.161
1.161
1.161
1.161
1.161
1.161
1.161
1.161
1.161
1.161
1.161
1.161
1.161
1.161
1.161
1.161
1.161
1.161
1.161
1.161
1.161
1.161
1.161
1.161
1.161
1.161
1.161
1.161
1.161
1.161
1.161
1.161
1.161
1.161
1.161
1.161
1.161
1.161
1.161
1.161
1.161
1.161
1.161
1.161
1.161
1.161
1.161
1.161
1.161
1.161
1.161
1.161
1.161
1.161
)
;

boundaryField
{
    wedge0
    {
        type            wedge;
    }
    wedge1
    {
        type            wedge;
    }
    wedge2
    {
        type            wedge;
    }
    wedge3
    {
        type            wedge;
    }
    outlet
    {
        type            zeroGradient;
    }
    defaultFaces
    {
        type            empty;
    }
}


// ************************************************************************* //
