/*--------------------------------*- C++ -*----------------------------------*\
| =========                 |                                                 |
| \\      /  F ield         | OpenFOAM: The Open Source CFD Toolbox           |
|  \\    /   O peration     | Version:  2312                                  |
|   \\  /    A nd           | Website:  www.openfoam.com                      |
|    \\/     M anipulation  |                                                 |
\*---------------------------------------------------------------------------*/
FoamFile
{
    version     2.0;
    format      ascii;
    arch        "LSB;label=32;scalar=64";
    class       volScalarField;
    location    "0.00019";
    object      T;
}
// * * * * * * * * * * * * * * * * * * * * * * * * * * * * * * * * * * * * * //

dimensions      [0 0 0 1 0 0 0];

internalField   nonuniform List<scalar> 
500
(
148600
148578
148524
148440
148326
148183
148011
147810
147580
147322
147035
146720
146377
146007
145609
145184
144731
144253
143747
143216
142659
142077
141469
140837
140180
139500
138796
138069
137319
136547
135753
134938
134102
133245
132369
131473
130559
129625
128674
127706
126721
125719
124702
123669
122622
121561
120486
119398
118297
117185
116061
114927
113782
112627
111464
110292
109112
107924
106730
105529
104322
103110
101894
100673
99448.7
98221.1
96990.9
95758.6
94524.8
93289.8
92054.2
90818.5
89583.1
88348.6
87115.3
85883.8
84654.5
83427.8
82204.2
80984
79767.7
78555.7
77348.4
76146.2
74949.4
73758.4
72573.6
71395.3
70223.8
69059.5
67902.6
66753.5
65612.6
64479.9
63355.9
62240.8
61134.8
60038.3
58951.3
57874.2
56807.2
55750.4
54704.1
53668.4
52643.5
51629.7
50626.9
49635.4
48655.3
47686.7
46729.8
45784.6
44851.3
43930
43020.6
42123.3
41238.2
40365.3
39504.7
38656.3
37820.3
36996.6
36185.3
35386.4
34599.8
33825.6
33063.8
32314.3
31577.1
30852.2
30139.5
29439
28750.7
28074.4
27410.2
26758
26117.6
25489.1
24872.3
24267.2
23673.6
23091.5
22520.8
21961.4
21413.1
20875.9
20349.7
19834.3
19329.6
18835.5
18352
17878.7
17415.8
16962.9
16520
16086.9
15663.6
15249.8
14845.4
14450.4
14064.5
13687.7
13319.7
12960.5
12609.9
12267.7
11933.9
11608.2
11290.6
10980.8
10678.8
10384.5
10097.5
9817.94
9545.53
9280.17
9021.71
8770.03
8524.97
8286.41
8054.2
7828.23
7608.34
7394.42
7186.33
6983.94
6787.13
6595.76
6409.72
6228.87
6053.11
5882.3
5716.34
5555.1
5398.47
5246.33
5098.58
4955.11
4815.8
4680.55
4549.26
4421.83
4298.15
4178.13
4061.67
3948.67
3839.04
3732.7
3629.55
3529.5
3432.47
3338.38
3247.14
3158.67
3072.9
2989.75
2909.14
2831.01
2755.27
2681.87
2610.73
2541.79
2474.98
2410.24
2347.52
2286.74
2227.85
2170.8
2115.54
2062
2010.13
1959.89
1911.23
1864.09
1818.44
1774.23
1731.41
1689.93
1649.77
1610.88
1573.22
1536.75
1501.44
1467.25
1434.15
1402.1
1371.07
1341.03
1311.95
1283.8
1256.55
1230.18
1204.65
1179.94
1156.03
1132.89
1110.5
1088.84
1067.88
1047.6
1027.98
1009.01
990.659
972.912
955.751
939.158
923.118
907.613
892.628
878.148
864.157
850.643
837.59
824.987
812.819
801.075
789.743
778.811
768.267
758.102
748.304
738.865
729.773
721.019
712.595
704.491
696.699
689.212
682.02
675.116
668.493
662.144
656.061
650.237
644.667
639.343
634.26
629.411
624.791
620.394
616.214
612.245
608.484
604.924
601.561
598.389
595.403
592.6
589.973
587.519
585.231
583.105
581.135
579.315
577.636
576.089
574.661
573.334
572.086
570.876
569.637
568.27
566.616
564.421
561.264
556.458
548.885
536.763
517.347
487.068
443.206
389.019
339.763
312.161
302.94
300.67
300.153
300.035
300.008
300.002
300
300
300
300
300
300
300
300
300
300
300
300
300
300
300
300
300
300
300
300
300
300
300
300
300
300
300
300
300
300
300
300
300
300
300
300
300
300
300
300
300
300
300
300
300
300
300
300
300
300
300
300
300
300
300
300
300
300
300
300
300
300
300
300
300
300
300
300
300
300
300
300
300
300
300
300
300
300
300
300
300
300
300
300
300
300
300
300
300
300
300
300
300
300
300
300
300
300
300
300
300
300
300
300
300
300
300
300
300
300
300
300
300
300
300
300
300
300
300
300
300
300
300
300
300
300
300
300
300
300
300
300
300
300
300
300
300
300
300
300
300
300
300
300
300
300
300
300
300
300
300
300
300
300
300
300
300
300
300
300
)
;

boundaryField
{
    wedge0
    {
        type            wedge;
    }
    wedge1
    {
        type            wedge;
    }
    wedge2
    {
        type            wedge;
    }
    wedge3
    {
        type            wedge;
    }
    outlet
    {
        type            zeroGradient;
    }
    defaultFaces
    {
        type            empty;
    }
}


// ************************************************************************* //
