/*--------------------------------*- C++ -*----------------------------------*\
| =========                 |                                                 |
| \\      /  F ield         | OpenFOAM: The Open Source CFD Toolbox           |
|  \\    /   O peration     | Version:  2312                                  |
|   \\  /    A nd           | Website:  www.openfoam.com                      |
|    \\/     M anipulation  |                                                 |
\*---------------------------------------------------------------------------*/
FoamFile
{
    version     2.0;
    format      ascii;
    arch        "LSB;label=32;scalar=64";
    class       volScalarField;
    location    "0.00019";
    object      thermo:e;
}
// * * * * * * * * * * * * * * * * * * * * * * * * * * * * * * * * * * * * * //

dimensions      [0 2 -2 0 0 0 0];

internalField   nonuniform List<scalar> 
500
(
1.0665e+08
1.06635e+08
1.06596e+08
1.06536e+08
1.06454e+08
1.06351e+08
1.06228e+08
1.06083e+08
1.05918e+08
1.05733e+08
1.05527e+08
1.05301e+08
1.05055e+08
1.04789e+08
1.04503e+08
1.04198e+08
1.03874e+08
1.0353e+08
1.03167e+08
1.02786e+08
1.02386e+08
1.01968e+08
1.01532e+08
1.01079e+08
1.00607e+08
1.00119e+08
9.96138e+07
9.9092e+07
9.85538e+07
9.79998e+07
9.743e+07
9.6845e+07
9.62449e+07
9.56303e+07
9.50013e+07
9.43584e+07
9.37019e+07
9.30322e+07
9.23497e+07
9.16546e+07
9.09475e+07
9.02287e+07
8.94986e+07
8.87575e+07
8.80059e+07
8.72442e+07
8.64726e+07
8.56918e+07
8.4902e+07
8.41036e+07
8.32971e+07
8.24829e+07
8.16613e+07
8.08327e+07
7.99976e+07
7.91564e+07
7.83094e+07
7.74571e+07
7.65999e+07
7.57381e+07
7.48721e+07
7.40023e+07
7.31292e+07
7.22531e+07
7.13743e+07
7.04933e+07
6.96104e+07
6.8726e+07
6.78404e+07
6.69541e+07
6.60673e+07
6.51804e+07
6.42938e+07
6.34078e+07
6.25227e+07
6.16388e+07
6.07565e+07
5.98761e+07
5.89979e+07
5.81222e+07
5.72493e+07
5.63795e+07
5.5513e+07
5.46501e+07
5.37912e+07
5.29364e+07
5.20861e+07
5.12404e+07
5.03996e+07
4.9564e+07
4.87337e+07
4.7909e+07
4.70901e+07
4.62772e+07
4.54705e+07
4.46702e+07
4.38765e+07
4.30895e+07
4.23094e+07
4.15363e+07
4.07705e+07
4.00121e+07
3.92611e+07
3.85178e+07
3.77823e+07
3.70546e+07
3.63349e+07
3.56233e+07
3.49199e+07
3.42248e+07
3.3538e+07
3.28596e+07
3.21898e+07
3.15285e+07
3.08759e+07
3.02319e+07
2.95967e+07
2.89702e+07
2.83525e+07
2.77437e+07
2.71436e+07
2.65525e+07
2.59702e+07
2.53968e+07
2.48323e+07
2.42767e+07
2.37299e+07
2.3192e+07
2.26629e+07
2.21426e+07
2.16311e+07
2.11284e+07
2.06344e+07
2.0149e+07
1.96723e+07
1.92042e+07
1.87446e+07
1.82935e+07
1.78509e+07
1.74166e+07
1.69906e+07
1.65728e+07
1.61632e+07
1.57617e+07
1.53682e+07
1.49827e+07
1.4605e+07
1.42351e+07
1.38729e+07
1.35183e+07
1.31712e+07
1.28316e+07
1.24993e+07
1.21743e+07
1.18564e+07
1.15456e+07
1.12417e+07
1.09448e+07
1.06546e+07
1.03711e+07
1.00941e+07
9.82366e+06
9.55957e+06
9.30176e+06
9.05012e+06
8.80455e+06
8.56495e+06
8.33122e+06
8.10325e+06
7.88095e+06
7.66421e+06
7.45293e+06
7.247e+06
7.04634e+06
6.85083e+06
6.66038e+06
6.47488e+06
6.29425e+06
6.11837e+06
5.94715e+06
5.7805e+06
5.61832e+06
5.46051e+06
5.30698e+06
5.15763e+06
5.01237e+06
4.87112e+06
4.73378e+06
4.60025e+06
4.47046e+06
4.34432e+06
4.22173e+06
4.10262e+06
3.98689e+06
3.87448e+06
3.76529e+06
3.65925e+06
3.55628e+06
3.4563e+06
3.35923e+06
3.26501e+06
3.17355e+06
3.08478e+06
2.99864e+06
2.91506e+06
2.83396e+06
2.75528e+06
2.67896e+06
2.60493e+06
2.53312e+06
2.46348e+06
2.39595e+06
2.33047e+06
2.26698e+06
2.20542e+06
2.14574e+06
2.08789e+06
2.03181e+06
1.97746e+06
1.92478e+06
1.87372e+06
1.82424e+06
1.77629e+06
1.72983e+06
1.68481e+06
1.64119e+06
1.59893e+06
1.55799e+06
1.51832e+06
1.47989e+06
1.44267e+06
1.40661e+06
1.37169e+06
1.33786e+06
1.3051e+06
1.27336e+06
1.24263e+06
1.21287e+06
1.18404e+06
1.15613e+06
1.1291e+06
1.10293e+06
1.07758e+06
1.05305e+06
1.02929e+06
1.00629e+06
984016
962457
941586
921383
901826
882897
864576
846844
829684
813077
797008
781460
766416
751863
737784
724167
710996
698259
685942
674034
662522
651394
640639
630247
620206
610506
601139
592093
583360
574932
566798
558952
551385
544090
537058
530283
523758
517475
511429
505613
500021
494647
489485
484531
479777
475220
470855
466675
462677
458857
455208
451728
448412
445256
442256
439409
436709
434154
431740
429464
427321
425309
423424
421662
420020
418495
417081
415774
414569
413459
412434
411482
410586
409717
408828
407847
406661
405085
402819
399370
393934
385235
371300
349569
318089
279199
243848
224038
217420
215791
215420
215335
215316
215311
215310
215310
215310
215310
215310
215310
215310
215310
215310
215310
215310
215310
215310
215310
215310
215310
215310
215310
215310
215310
215310
215310
215310
215310
215310
215310
215310
215310
215310
215310
215310
215310
215310
215310
215310
215310
215310
215310
215310
215310
215310
215310
215310
215310
215310
215310
215310
215310
215310
215310
215310
215310
215310
215310
215310
215310
215310
215310
215310
215310
215310
215310
215310
215310
215310
215310
215310
215310
215310
215310
215310
215310
215310
215310
215310
215310
215310
215310
215310
215310
215310
215310
215310
215310
215310
215310
215310
215310
215310
215310
215310
215310
215310
215310
215310
215310
215310
215310
215310
215310
215310
215310
215310
215310
215310
215310
215310
215310
215310
215310
215310
215310
215310
215310
215310
215310
215310
215310
215310
215310
215310
215310
215310
215310
215310
215310
215310
215310
215310
215310
215310
215310
215310
215310
215310
215310
215310
215310
215310
215310
215310
215310
215310
215310
215310
215310
215310
215310
215310
215310
215310
215310
215310
215310
215310
215310
215310
215310
215310
215310
)
;

boundaryField
{
    wedge0
    {
        type            wedge;
    }
    wedge1
    {
        type            wedge;
    }
    wedge2
    {
        type            wedge;
    }
    wedge3
    {
        type            wedge;
    }
    outlet
    {
        type            zeroGradient;
    }
    defaultFaces
    {
        type            empty;
    }
}


// ************************************************************************* //
