/*--------------------------------*- C++ -*----------------------------------*\
| =========                 |                                                 |
| \\      /  F ield         | OpenFOAM: The Open Source CFD Toolbox           |
|  \\    /   O peration     | Version:  2312                                  |
|   \\  /    A nd           | Website:  www.openfoam.com                      |
|    \\/     M anipulation  |                                                 |
\*---------------------------------------------------------------------------*/
FoamFile
{
    version     2.0;
    format      ascii;
    arch        "LSB;label=32;scalar=64";
    class       volVectorField;
    location    "0.00019";
    object      U;
}
// * * * * * * * * * * * * * * * * * * * * * * * * * * * * * * * * * * * * * //

dimensions      [0 1 -1 0 0 0 0];

internalField   nonuniform List<vector> 
500
(
(1.15858 -3.42893e-10 3.44111e-10)
(2.08593 -3.32963e-10 3.35333e-10)
(3.1203 -3.41468e-10 3.43425e-10)
(4.21894 -3.36864e-10 3.39155e-10)
(5.34322 -3.19998e-10 3.2086e-10)
(6.4799 -3.19116e-10 3.19102e-10)
(7.62346 -3.15342e-10 3.15331e-10)
(8.77123 -3.0953e-10 3.09528e-10)
(9.92176 -2.97524e-10 2.97537e-10)
(11.0742 -2.82332e-10 2.82322e-10)
(12.228 -2.66827e-10 2.66811e-10)
(13.3828 -2.52442e-10 2.52433e-10)
(14.5385 -2.38194e-10 2.38194e-10)
(15.6947 -2.24177e-10 2.24181e-10)
(16.8514 -2.10478e-10 2.10472e-10)
(18.0086 -1.98463e-10 1.98457e-10)
(19.1661 -1.8786e-10 1.87872e-10)
(20.3238 -1.81901e-10 1.81917e-10)
(21.4818 -1.75645e-10 1.75663e-10)
(22.64 -1.72812e-10 1.72819e-10)
(23.7984 -1.69589e-10 1.69585e-10)
(24.9569 -1.68036e-10 1.68023e-10)
(26.1156 -1.65346e-10 1.65353e-10)
(27.2744 -1.63653e-10 1.63668e-10)
(28.4333 -1.61037e-10 1.6104e-10)
(29.5924 -1.57636e-10 1.57641e-10)
(30.7515 -1.54946e-10 1.54943e-10)
(31.9107 -1.5167e-10 1.51662e-10)
(33.0699 -1.4625e-10 1.46242e-10)
(34.2293 -1.41895e-10 1.41891e-10)
(35.3887 -1.37694e-10 1.37682e-10)
(36.5482 -1.33227e-10 1.33229e-10)
(37.7078 -1.27234e-10 1.2723e-10)
(38.8674 -1.21077e-10 1.21072e-10)
(40.027 -1.15478e-10 1.15484e-10)
(41.1868 -1.09964e-10 1.09964e-10)
(42.3465 -1.05182e-10 1.05182e-10)
(43.5064 -1.00387e-10 1.00387e-10)
(44.6662 -9.61735e-11 9.61735e-11)
(45.8262 -9.21989e-11 9.21989e-11)
(46.9861 -8.73431e-11 8.73431e-11)
(48.1462 -8.20345e-11 8.20345e-11)
(49.3062 -7.67775e-11 7.67775e-11)
(50.4664 -7.11441e-11 7.11441e-11)
(51.6265 -6.54583e-11 6.54583e-11)
(52.7867 -6.03993e-11 6.03993e-11)
(53.947 -5.50171e-11 5.50171e-11)
(55.1073 -4.93446e-11 4.93446e-11)
(56.2677 -4.34167e-11 4.34167e-11)
(57.4281 -3.82397e-11 3.82397e-11)
(58.5885 -3.34055e-11 3.34055e-11)
(59.749 -2.84653e-11 2.84653e-11)
(60.9095 -2.41437e-11 2.41437e-11)
(62.0701 -1.96492e-11 1.96492e-11)
(63.2307 -1.54226e-11 1.54226e-11)
(64.3914 -1.17149e-11 1.17149e-11)
(65.5522 -8.49141e-12 8.49141e-12)
(66.7129 -5.71288e-12 5.71288e-12)
(67.8738 -2.964e-12 2.964e-12)
(69.0347 -2.49167e-13 2.49167e-13)
(70.1956 1.46142e-12 -1.46142e-12)
(71.3566 2.83367e-12 -2.83367e-12)
(72.5176 3.97665e-12 -3.97665e-12)
(73.6787 4.82396e-12 -4.82396e-12)
(74.8399 5.38264e-12 -5.38264e-12)
(76.0011 5.67915e-12 -5.67915e-12)
(77.1624 5.93881e-12 -5.93881e-12)
(78.3237 6.43105e-12 -6.43105e-12)
(79.4851 6.23124e-12 -6.23124e-12)
(80.6466 6.08437e-12 -6.08437e-12)
(81.8081 5.90632e-12 -5.90632e-12)
(82.9697 5.72266e-12 -5.72266e-12)
(84.1313 5.52566e-12 -5.52566e-12)
(85.2931 5.3598e-12 -5.3598e-12)
(86.4549 5.38504e-12 -5.38511e-12)
(87.6167 5.44636e-12 -5.44689e-12)
(88.7787 5.1603e-12 -5.15852e-12)
(89.9407 4.71817e-12 -4.71813e-12)
(91.1028 4.49705e-12 -4.49736e-12)
(92.2649 4.27934e-12 -4.27649e-12)
(93.4272 4.14525e-12 -4.0955e-12)
(94.5895 3.73398e-12 -3.63031e-12)
(95.7519 3.06007e-12 -2.89343e-12)
(96.9144 2.11701e-12 -1.88888e-12)
(98.077 9.2678e-13 -6.3442e-13)
(99.2397 -3.74344e-13 5.86948e-13)
(100.403 -1.40636e-12 1.54166e-12)
(101.565 -2.23174e-12 2.33874e-12)
(102.728 -2.81379e-12 2.89215e-12)
(103.891 -3.19175e-12 3.22826e-12)
(105.055 -3.36554e-12 3.34417e-12)
(106.218 -3.32734e-12 3.24888e-12)
(107.381 -3.26136e-12 3.26348e-12)
(108.545 -3.06227e-12 3.08035e-12)
(109.708 -2.6688e-12 2.70177e-12)
(110.872 -2.19549e-12 2.14029e-12)
(112.036 -1.89662e-12 1.71796e-12)
(113.2 -1.48083e-12 1.47837e-12)
(114.364 -1.08345e-12 1.09748e-12)
(115.528 -6.88952e-13 7.22614e-13)
(116.693 -4.62751e-13 5.1623e-13)
(117.857 -3.16995e-13 3.85637e-13)
(119.022 -8.69714e-14 9.89971e-14)
(120.187 1.73747e-13 -2.048e-13)
(121.352 5.81825e-13 -6.57732e-13)
(122.517 1.13541e-12 -1.20259e-12)
(123.682 1.55429e-12 -1.61293e-12)
(124.848 2.11567e-12 -2.16607e-12)
(126.013 2.55184e-12 -2.59305e-12)
(127.179 3.12402e-12 -3.15654e-12)
(128.345 3.6222e-12 -3.63885e-12)
(129.511 4.01311e-12 -4.01306e-12)
(130.678 4.0184e-12 -4.01879e-12)
(131.844 4.14758e-12 -4.14855e-12)
(133.011 4.40034e-12 -4.40102e-12)
(134.178 4.34766e-12 -4.34887e-12)
(135.345 4.03598e-12 -4.03645e-12)
(136.513 3.83223e-12 -3.83239e-12)
(137.68 3.73343e-12 -3.73314e-12)
(138.848 3.54595e-12 -3.54529e-12)
(140.017 3.64713e-12 -3.64628e-12)
(141.185 3.66874e-12 -3.66782e-12)
(142.354 3.43125e-12 -3.43048e-12)
(143.523 3.13161e-12 -3.1307e-12)
(144.692 2.87889e-12 -2.87846e-12)
(145.861 2.65336e-12 -2.65273e-12)
(147.031 2.34858e-12 -2.34817e-12)
(148.201 1.9635e-12 -1.96291e-12)
(149.372 1.52951e-12 -1.52926e-12)
(150.542 1.09881e-12 -1.09845e-12)
(151.713 7.24143e-13 -7.23633e-13)
(152.885 4.04324e-13 -4.03761e-13)
(154.057 1.38431e-13 -1.37812e-13)
(155.229 -7.20155e-14 7.23123e-14)
(156.401 -2.26271e-13 2.26567e-13)
(157.574 -1.98605e-13 1.98603e-13)
(158.748 -9.65943e-14 9.65931e-14)
(159.921 -1.71353e-13 1.71353e-13)
(161.096 -1.92106e-13 1.92106e-13)
(162.27 -1.9145e-13 1.9145e-13)
(163.445 -1.90621e-13 1.90621e-13)
(164.621 -1.89256e-13 1.89256e-13)
(165.797 -2.12639e-13 2.12639e-13)
(166.974 -1.86714e-13 1.86714e-13)
(168.151 -1.85288e-13 1.85288e-13)
(169.328 -1.67061e-13 1.67061e-13)
(170.507 -1.96416e-13 1.96416e-13)
(171.685 -1.82777e-13 1.82777e-13)
(172.865 -1.43626e-13 1.43442e-13)
(174.045 -5.77985e-14 5.77642e-14)
(175.225 -7.41626e-14 7.44372e-14)
(176.407 -1.0698e-13 1.07243e-13)
(177.589 -6.03857e-14 6.06376e-14)
(178.771 -5.7955e-14 5.8196e-14)
(179.955 -1.34077e-13 1.34305e-13)
(181.139 -1.41238e-13 1.41451e-13)
(182.324 -1.73845e-13 1.73867e-13)
(183.51 -2.06798e-13 2.06986e-13)
(184.697 -1.7339e-13 1.73459e-13)
(185.884 -2.34208e-13 2.34467e-13)
(187.073 -2.36088e-13 2.36324e-13)
(188.262 -1.7424e-13 1.74306e-13)
(189.453 -1.70706e-13 1.70649e-13)
(190.644 -2.63445e-13 2.63627e-13)
(191.836 -1.88753e-13 1.89002e-13)
(193.03 -1.66216e-13 1.66348e-13)
(194.224 -1.65359e-13 1.6547e-13)
(195.42 -1.41125e-13 1.41206e-13)
(196.617 -1.70309e-13 1.70228e-13)
(197.815 -2.5903e-13 2.59037e-13)
(199.015 -4.00806e-13 4.00701e-13)
(200.215 -6.18684e-13 6.18479e-13)
(201.418 -7.24174e-13 7.23912e-13)
(202.621 -8.0365e-13 8.03361e-13)
(203.826 -8.55502e-13 8.552e-13)
(205.033 -8.76802e-13 8.76542e-13)
(206.241 -8.64669e-13 8.64374e-13)
(207.451 -8.14329e-13 8.14034e-13)
(208.662 -7.19707e-13 7.19395e-13)
(209.875 -5.72118e-13 5.71917e-13)
(211.09 -4.44301e-13 4.44027e-13)
(212.307 -3.3651e-13 3.3629e-13)
(213.526 -2.50534e-13 2.50377e-13)
(214.747 -1.88323e-13 1.88298e-13)
(215.97 -1.52962e-13 1.52977e-13)
(217.195 -1.30874e-13 1.30814e-13)
(218.422 -6.92293e-14 6.91013e-14)
(219.652 -2.95596e-14 2.93534e-14)
(220.884 0 0)
(222.119 2.01134e-14 -2.01134e-14)
(223.356 5.24529e-14 -5.24529e-14)
(224.595 6.14084e-14 -6.14084e-14)
(225.838 4.21039e-14 -4.21039e-14)
(227.083 2.10062e-14 -2.10062e-14)
(228.332 2.46726e-14 -2.46726e-14)
(229.583 0 0)
(230.838 -2.75998e-14 2.76997e-14)
(232.096 -3.57969e-14 3.59876e-14)
(233.357 -1.93482e-14 1.96673e-14)
(234.622 2.74062e-14 -2.70567e-14)
(235.891 6.36442e-14 -6.33068e-14)
(237.163 8.72272e-14 -8.6938e-14)
(238.439 9.77254e-14 -9.74613e-14)
(239.719 8.88433e-14 -8.86063e-14)
(241.004 6.00128e-14 -5.97778e-14)
(242.292 4.53215e-14 -4.50883e-14)
(243.586 4.92594e-14 -4.90349e-14)
(244.884 3.26573e-14 -3.24653e-14)
(246.186 3.24055e-14 -3.22305e-14)
(247.494 1.06142e-14 -1.0452e-14)
(248.807 -2.6904e-15 2.87515e-15)
(250.125 -1.41923e-14 1.42713e-14)
(251.448 -4.73788e-14 4.74506e-14)
(252.778 -7.70658e-14 7.7122e-14)
(254.113 -1.09952e-13 1.10008e-13)
(255.454 -1.42387e-13 1.42434e-13)
(256.802 -1.37255e-13 1.37288e-13)
(258.156 -1.13933e-13 1.13973e-13)
(259.516 -9.65579e-14 9.65933e-14)
(260.884 -8.66867e-14 8.66903e-14)
(262.258 -8.26229e-14 8.26247e-14)
(263.641 -7.85871e-14 7.85729e-14)
(265.03 -7.86031e-14 7.86126e-14)
(266.428 -6.89394e-14 6.89577e-14)
(267.834 -3.83853e-14 3.83853e-14)
(269.248 -4.48662e-14 4.48662e-14)
(270.671 -5.26814e-14 5.26814e-14)
(272.102 -8.35482e-14 8.35482e-14)
(273.543 -9.26846e-14 9.26846e-14)
(274.993 -1.05537e-13 1.05537e-13)
(276.454 -1.31661e-13 1.31661e-13)
(277.924 -1.38426e-13 1.38426e-13)
(279.404 -1.43412e-13 1.43412e-13)
(280.896 -1.44434e-13 1.44434e-13)
(282.398 -1.49353e-13 1.49353e-13)
(283.912 -1.51879e-13 1.51879e-13)
(285.437 -1.49757e-13 1.49757e-13)
(286.975 -1.47922e-13 1.47922e-13)
(288.524 -1.38043e-13 1.38043e-13)
(290.087 -1.36991e-13 1.36991e-13)
(291.663 -1.53887e-13 1.53887e-13)
(293.252 -1.57006e-13 1.57006e-13)
(294.855 -1.58177e-13 1.58177e-13)
(296.472 -1.27197e-13 1.27197e-13)
(298.104 -1.03946e-13 1.03946e-13)
(299.751 -9.50112e-14 9.50112e-14)
(301.413 -1.16061e-13 1.16061e-13)
(303.091 -1.14807e-13 1.14807e-13)
(304.786 -1.06478e-13 1.06478e-13)
(306.497 -1.27719e-13 1.27719e-13)
(308.225 -1.28066e-13 1.28066e-13)
(309.97 -1.25106e-13 1.25106e-13)
(311.734 -1.13714e-13 1.13714e-13)
(313.516 -1.01629e-13 1.01629e-13)
(315.316 -8.69471e-14 8.69471e-14)
(317.136 -7.63349e-14 7.63349e-14)
(318.976 -7.0851e-14 7.0851e-14)
(320.835 -8.22683e-14 8.22683e-14)
(322.715 -7.50419e-14 7.50419e-14)
(324.617 -6.26878e-14 6.26878e-14)
(326.539 -5.29002e-14 5.29002e-14)
(328.484 -4.2881e-14 4.2881e-14)
(330.451 -3.32019e-14 3.32019e-14)
(332.44 -2.23667e-14 2.23667e-14)
(334.453 -3.39613e-15 3.39613e-15)
(336.49 6.10991e-15 -6.10991e-15)
(338.55 2.3165e-14 -2.3165e-14)
(340.636 2.83221e-14 -2.83221e-14)
(342.746 3.25008e-14 -3.25008e-14)
(344.881 3.27522e-14 -3.27522e-14)
(347.042 2.65532e-14 -2.65532e-14)
(349.23 2.07324e-14 -2.07324e-14)
(351.444 1.52639e-14 -1.52639e-14)
(353.684 1.0105e-14 -1.0105e-14)
(355.953 4.70431e-15 -4.70431e-15)
(358.248 -9.18545e-15 9.18545e-15)
(360.572 -1.10586e-14 1.10586e-14)
(362.924 -6.59483e-15 6.59483e-15)
(365.305 -2.52458e-15 2.52458e-15)
(367.715 0 3.69074e-34)
(370.154 0 5.91152e-35)
(372.623 8.15826e-16 -8.15826e-16)
(375.121 1.17691e-14 -1.17691e-14)
(377.65 1.24333e-14 -1.24333e-14)
(380.208 1.54372e-15 -1.54372e-15)
(382.797 -9.29656e-17 9.29656e-17)
(385.417 0 4.635e-35)
(388.067 0 0)
(390.748 -9.19406e-15 9.19406e-15)
(393.46 -9.78635e-15 9.78635e-15)
(396.204 -6.40736e-15 6.40736e-15)
(398.978 1.12267e-15 -1.12267e-15)
(401.783 -6.61937e-15 6.61937e-15)
(404.619 -3.47864e-15 3.47864e-15)
(407.487 -6.49333e-16 6.49333e-16)
(410.385 6.00965e-15 -6.00965e-15)
(413.315 -1.2542e-15 1.2542e-15)
(416.275 0 2.80952e-35)
(419.266 0 0)
(422.287 0 2.54124e-35)
(425.339 -5.92856e-15 5.92856e-15)
(428.42 8.65716e-17 -8.65716e-17)
(431.532 -5.26197e-15 5.26197e-15)
(434.672 -3.2248e-15 3.2248e-15)
(437.842 6.51133e-16 -6.51133e-16)
(441.04 1.4004e-16 -1.4004e-16)
(444.266 0 1.74084e-35)
(447.52 0 0)
(450.799 -3.50661e-15 3.50661e-15)
(454.103 -6.6602e-15 6.6602e-15)
(457.43 -6.01323e-15 6.01323e-15)
(460.777 -4.82573e-15 4.82573e-15)
(464.14 -3.40872e-15 3.40872e-15)
(467.514 -1.70776e-15 1.70776e-15)
(470.89 1.1847e-15 -1.1847e-15)
(474.255 0 5.40938e-35)
(477.588 -1.87802e-18 1.87802e-18)
(480.859 -1.70632e-16 1.70632e-16)
(484.018 -2.13834e-15 2.13834e-15)
(486.987 -4.87676e-15 4.87676e-15)
(489.634 -9.15024e-15 9.15024e-15)
(491.755 -1.28021e-14 1.28021e-14)
(493.018 -1.43983e-14 1.43983e-14)
(492.883 -1.70022e-14 1.70022e-14)
(490.471 -1.98848e-14 1.98848e-14)
(484.361 -1.875e-14 1.875e-14)
(472.277 -1.72681e-14 1.72681e-14)
(450.686 -1.55173e-14 1.55173e-14)
(414.446 -9.14948e-15 9.14948e-15)
(357.363 -5.68848e-15 5.68848e-15)
(275.484 -3.23446e-15 3.23446e-15)
(175.575 -1.51043e-15 1.51043e-15)
(83.6179 -1.42679e-15 1.42679e-15)
(28.4382 -4.97542e-15 4.97542e-15)
(7.62408 -5.10979e-15 5.10979e-15)
(1.85111 -6.72889e-16 6.72889e-16)
(0.435504 0 0)
(0.101268 0 0)
(0.0233885 0 0)
(0.00537155 0 0)
(0.00122716 0 0)
(0.000278903 -1.93857e-15 1.93857e-15)
(6.30644e-05 0 0)
(1.41878e-05 0 0)
(3.17589e-06 1.90636e-15 -1.90636e-15)
(7.07381e-07 2.80426e-18 -2.80426e-18)
(1.56779e-07 1.88269e-15 -1.88269e-15)
(3.45723e-08 0 0)
(7.58159e-09 -3.0966e-15 3.0966e-15)
(1.64892e-09 -2.46339e-15 2.46339e-15)
(3.52686e-10 -5.52366e-15 5.52366e-15)
(7.53073e-11 -4.89522e-15 4.89522e-15)
(2.35555e-11 -6.18853e-16 6.18853e-16)
(1.19828e-11 0 0)
(3.46276e-12 0 0)
(-4.0484e-12 1.78708e-15 -1.78708e-15)
(-1.22177e-11 0 0)
(-1.29811e-11 -4.24302e-15 4.24302e-15)
(-4.99954e-12 -4.93485e-15 4.93485e-15)
(-2.33759e-12 -2.11276e-15 2.11276e-15)
(-1.07174e-11 -2.79301e-15 2.79301e-15)
(-1.6362e-11 0 0)
(-1.06363e-11 0 0)
(9.26426e-12 -1.71384e-15 1.71384e-15)
(1.33312e-11 -2.94759e-18 2.94759e-18)
(1.42557e-11 -1.69172e-15 1.69172e-15)
(1.98163e-11 0 0)
(4.03579e-14 1.67419e-15 -1.67419e-15)
(-2.28077e-11 0 0)
(-2.18668e-11 0 0)
(-1.48709e-11 -7.97305e-16 7.97305e-16)
(-1.92334e-11 -4.87493e-15 4.87493e-15)
(-2.01723e-11 -5.66711e-15 5.66711e-15)
(-2.14231e-11 -9.70045e-15 9.70045e-15)
(-2.12248e-11 -1.048e-14 1.048e-14)
(-2.74772e-11 -8.04027e-15 8.04027e-15)
(-3.23139e-11 -2.41559e-15 2.41559e-15)
(-2.15145e-11 0 0)
(-5.63793e-12 0 0)
(5.00741e-12 1.56963e-15 -1.56963e-15)
(-2.40556e-12 2.71733e-18 -2.71733e-18)
(-1.94003e-11 1.55471e-15 -1.55471e-15)
(-2.42125e-11 0 0)
(-1.44221e-11 0 0)
(-7.60552e-12 -1.52915e-15 1.52915e-15)
(-1.87366e-11 0 0)
(-2.64398e-11 0 0)
(-1.25923e-11 0 0)
(3.04406e-12 2.99666e-15 -2.99666e-15)
(6.08841e-12 2.98759e-15 -2.98759e-15)
(8.78588e-12 8.73602e-18 -8.73602e-18)
(1.74081e-11 0 0)
(1.06911e-11 0 0)
(-3.13135e-13 1.46025e-15 -1.46025e-15)
(-1.59358e-12 0 0)
(1.23297e-11 0 0)
(2.59809e-11 0 0)
(3.1235e-11 0 0)
(2.99522e-11 0 0)
(1.83053e-11 0 0)
(6.51101e-12 0 0)
(-5.09226e-13 0 0)
(4.70655e-12 5.96145e-16 -5.96145e-16)
(3.28585e-11 3.97407e-15 -3.97407e-15)
(4.3381e-11 1.01001e-14 -1.01001e-14)
(2.21121e-11 1.3442e-14 -1.3442e-14)
(8.25376e-12 1.40246e-14 -1.40246e-14)
(2.13218e-12 6.41929e-15 -6.41929e-15)
(-5.53408e-12 1.56298e-15 -1.56298e-15)
(-1.19826e-11 -5.68999e-16 5.68999e-16)
(-2.01058e-11 0 0)
(-1.05542e-11 0 0)
(5.16714e-12 0 0)
(1.63697e-12 0 0)
(9.40116e-12 0 0)
(1.89076e-11 0 0)
(1.8293e-11 0 0)
(8.87985e-12 0 0)
(5.96665e-12 -8.63461e-16 8.63461e-16)
(2.61827e-11 8.53847e-16 -8.53847e-16)
(3.97517e-11 0 0)
(4.22038e-11 0 0)
(2.34335e-11 -1.26876e-15 1.26876e-15)
(1.04566e-11 -4.35249e-18 4.35249e-18)
(6.6835e-12 -1.25886e-15 1.25886e-15)
(-4.34624e-12 -4.07145e-18 4.07145e-18)
(-1.02253e-11 -1.24362e-15 1.24362e-15)
(-1.38046e-11 0 0)
(-1.47482e-11 -8.20801e-16 8.20801e-16)
(-1.89397e-11 8.16164e-16 -8.16164e-16)
(-1.38688e-11 0 0)
(-3.04096e-11 1.21602e-15 -1.21602e-15)
(-3.09809e-11 1.68146e-18 -1.68146e-18)
(-1.09673e-11 1.20262e-15 -1.20262e-15)
(9.5732e-12 0 0)
(3.12091e-11 7.97387e-16 -7.97387e-16)
(3.95486e-11 -7.88654e-16 7.88654e-16)
(2.5719e-11 0 0)
(5.63739e-12 -9.22231e-16 9.22231e-16)
(-2.00386e-13 -4.1856e-15 4.1856e-15)
(-7.52341e-12 -9.76728e-15 9.76728e-15)
(-2.82534e-11 -8.35234e-15 8.35234e-15)
(-2.90956e-11 0 0)
(-2.38298e-11 8.27224e-15 -8.27224e-15)
(-1.70732e-11 9.62976e-15 -9.62976e-15)
(-2.73752e-12 4.13094e-15 -4.13094e-15)
(-3.97722e-12 9.27119e-16 -9.27119e-16)
(1.74774e-11 0 0)
(4.70719e-11 9.54766e-16 -9.54766e-16)
(5.13483e-11 4.14544e-15 -4.14544e-15)
(2.90561e-11 6.24716e-16 -6.24716e-16)
(2.58468e-11 -1.86578e-15 1.86578e-15)
(3.26305e-11 -6.55785e-15 6.55785e-15)
(2.3349e-11 -4.62021e-15 4.62021e-15)
(1.48476e-11 -4.88407e-15 4.88407e-15)
(7.90194e-12 -7.32921e-15 7.32921e-15)
(7.34595e-12 -1.19373e-14 1.19373e-14)
(3.47524e-12 -1.86892e-14 1.86892e-14)
(-3.83825e-12 -2.74221e-14 2.74221e-14)
(-1.3966e-11 -2.97592e-14 2.97592e-14)
(-2.3061e-11 -2.97338e-14 2.97338e-14)
(-2.30066e-11 -2.66794e-14 2.66794e-14)
(-2.53471e-11 -1.73069e-14 1.73069e-14)
(-2.01314e-11 -9.80134e-15 9.80134e-15)
(-7.07429e-12 -4.42715e-15 4.42715e-15)
(-7.30806e-12 -1.16634e-15 1.16634e-15)
(2.10616e-12 0 0)
(2.25736e-11 0 0)
(9.53756e-12 0 0)
(-4.9975e-12 0 0)
(-8.18204e-12 0 0)
(-1.14701e-13 6.73757e-16 -6.73757e-16)
(1.33349e-11 3.28777e-15 -3.28777e-15)
(-1.00158e-12 -1.70447e-16 1.70447e-16)
(-2.03173e-11 -5.62364e-15 5.62364e-15)
(-1.4305e-11 -5.04451e-15 5.04451e-15)
(3.25414e-12 -6.46139e-15 6.46139e-15)
(1.17079e-11 -1.91121e-15 1.91121e-15)
(4.2898e-12 6.41744e-16 -6.41744e-16)
(-1.67369e-11 3.70598e-15 -3.70598e-15)
(-3.39522e-11 8.70948e-16 -8.70948e-16)
(-3.18249e-11 0 0)
(-1.73458e-11 0 0)
(-2.32574e-11 -3.55736e-16 3.55736e-16)
(-2.85029e-11 -2.63909e-15 2.63909e-15)
(-7.2251e-12 -6.83373e-15 6.83373e-15)
(1.15167e-11 -5.26762e-15 5.26762e-15)
(1.43019e-11 -9.42753e-15 9.42753e-15)
(1.27199e-14 -1.54674e-14 1.54674e-14)
(-1.81287e-11 -2.33229e-14 2.33229e-14)
(-2.28388e-11 -2.54606e-14 2.54606e-14)
(-1.83653e-11 -2.3678e-14 2.3678e-14)
(-9.43055e-12 -1.6258e-14 1.6258e-14)
(3.98052e-12 -1.06812e-14 1.06812e-14)
(1.69118e-11 -6.97901e-15 6.97901e-15)
(3.12957e-11 -5.13632e-15 5.13632e-15)
(3.72174e-11 -5.13813e-15 5.13813e-15)
(3.63141e-11 -6.96985e-15 6.96985e-15)
(2.23442e-11 -3.32505e-15 3.32505e-15)
(6.39109e-12 -1.50961e-15 1.50961e-15)
)
;

boundaryField
{
    wedge0
    {
        type            wedge;
    }
    wedge1
    {
        type            wedge;
    }
    wedge2
    {
        type            wedge;
    }
    wedge3
    {
        type            wedge;
    }
    outlet
    {
        type            zeroGradient;
    }
    defaultFaces
    {
        type            empty;
    }
}


// ************************************************************************* //
