/*--------------------------------*- C++ -*----------------------------------*\
| =========                 |                                                 |
| \\      /  F ield         | OpenFOAM: The Open Source CFD Toolbox           |
|  \\    /   O peration     | Version:  2312                                  |
|   \\  /    A nd           | Website:  www.openfoam.com                      |
|    \\/     M anipulation  |                                                 |
\*---------------------------------------------------------------------------*/
FoamFile
{
    version     2.0;
    format      ascii;
    arch        "LSB;label=32;scalar=64";
    class       volScalarField;
    location    "0.004";
    object      p;
}
// * * * * * * * * * * * * * * * * * * * * * * * * * * * * * * * * * * * * * //

dimensions      [1 -1 -2 0 0 0 0];

internalField   nonuniform List<scalar> 
100
(
100207
100207
100207
100207
100207
100207
100207
100207
100207
100207
100207
100207
100207
100207
100207
100207
100207
100207
100207
100207
100207
100207
100207
100207
100207
100207
100207
100206
100205
100200
100181
100121
99947.5
99503
98498.2
96523.8
93187.3
88355.4
82303.2
75584.6
68980.6
63063.1
57768
53021.8
48732.2
44825.3
41262.8
38026.4
35102.8
32805.7
30716.5
29254.3
28585.2
28250.9
28102
28126.5
28269.8
28368.3
28443.4
28509.2
28620.9
28233.9
29026
28157.4
28797.1
28304
28507.5
28406.6
28628.8
28857.1
28746.7
26568.6
15984.9
10545.2
10062.3
10023.8
10020.9
10020.7
10020.7
10020.7
10020.7
10020.7
10020.7
10020.7
10020.7
10020.7
10020.7
10020.7
10020.7
10020.7
10020.7
10020.7
10020.7
10020.7
10020.7
10020.7
10020.7
10020.7
10020.7
10020.7
)
;

boundaryField
{
    sides
    {
        type            zeroGradient;
    }
    empty
    {
        type            empty;
    }
}


// ************************************************************************* //
