/*--------------------------------*- C++ -*----------------------------------*\
| =========                 |                                                 |
| \\      /  F ield         | OpenFOAM: The Open Source CFD Toolbox           |
|  \\    /   O peration     | Version:  2312                                  |
|   \\  /    A nd           | Website:  www.openfoam.com                      |
|    \\/     M anipulation  |                                                 |
\*---------------------------------------------------------------------------*/
FoamFile
{
    version     2.0;
    format      ascii;
    arch        "LSB;label=32;scalar=64";
    class       volScalarField;
    location    "0.004";
    object      thermo:e;
}
// * * * * * * * * * * * * * * * * * * * * * * * * * * * * * * * * * * * * * //

dimensions      [0 2 -2 0 0 0 0];

internalField   nonuniform List<scalar> 
100
(
215760
215760
215760
215760
215760
215760
215760
215760
215760
215760
215760
215760
215760
215760
215760
215760
215760
215760
215760
215760
215760
215760
215760
215760
215760
215760
215760
215760
215759
215756
215744
215707
215600
215326
214703
213465
211329
208129
203930
199015
193881
188951
184254
179779
175483
171331
167318
163427
159587
156656
154455
152493
150433
149191
149051
149435
150706
153267
158240
167523
184183
211173
250152
276319
293115
298300
301670
302208
303056
303474
302933
295326
254915
219383
216026
215779
215761
215760
215760
215760
215760
215760
215760
215760
215760
215760
215760
215760
215760
215760
215760
215760
215760
215760
215760
215760
215760
215760
215760
215760
)
;

boundaryField
{
    sides
    {
        type            zeroGradient;
    }
    empty
    {
        type            empty;
    }
}


// ************************************************************************* //
