/*--------------------------------*- C++ -*----------------------------------*\
| =========                 |                                                 |
| \\      /  F ield         | OpenFOAM: The Open Source CFD Toolbox           |
|  \\    /   O peration     | Version:  2312                                  |
|   \\  /    A nd           | Website:  www.openfoam.com                      |
|    \\/     M anipulation  |                                                 |
\*---------------------------------------------------------------------------*/
FoamFile
{
    version     2.0;
    format      ascii;
    arch        "LSB;label=32;scalar=64";
    class       volVectorField;
    location    "0.004";
    object      U;
}
// * * * * * * * * * * * * * * * * * * * * * * * * * * * * * * * * * * * * * //

dimensions      [0 1 -1 0 0 0 0];

internalField   nonuniform List<vector> 
100
(
(2.09755e-13 0 0)
(2.27771e-13 0 0)
(2.10047e-13 0 0)
(1.29726e-13 0 0)
(3.96373e-14 0 0)
(3.42209e-14 0 0)
(-1.49023e-14 0 0)
(-8.34652e-14 0 0)
(-8.56248e-14 0 0)
(-4.04925e-14 0 0)
(-3.02822e-14 0 0)
(-3.31167e-14 0 0)
(-1.18951e-13 0 0)
(-1.51876e-13 0 0)
(-1.17746e-13 0 0)
(1.02342e-13 0 0)
(1.72259e-12 0 0)
(1.50996e-11 0 0)
(1.23068e-10 0 0)
(9.41489e-10 0 0)
(6.78885e-09 0 0)
(4.60804e-08 0 0)
(2.94085e-07 0 0)
(1.76222e-06 0 0)
(9.89837e-06 0 0)
(5.20181e-05 0 0)
(0.000255183 0 0)
(0.00116547 0 0)
(0.00493993 0 0)
(0.0193579 0 0)
(0.0698079 0 0)
(0.230378 0 0)
(0.691193 0 0)
(1.87147 0 0)
(4.53959 0 0)
(9.80904 0 0)
(18.8422 0 0)
(32.2897 0 0)
(49.8722 0 0)
(70.609 0 0)
(91.7982 0 0)
(112.528 0 0)
(132.539 0 0)
(151.999 0 0)
(170.969 0 0)
(189.513 0 0)
(207.656 0 0)
(225.301 0 0)
(241.694 0 0)
(257.868 0 0)
(270.182 0 0)
(279.562 0 0)
(285.982 0 0)
(288.432 0 0)
(289.249 0 0)
(288.84 0 0)
(287.405 0 0)
(286.696 0 0)
(286.692 0 0)
(287.076 0 0)
(287.407 0 0)
(289.716 0 0)
(283.103 0 0)
(288.814 0 0)
(284.096 0 0)
(286.666 0 0)
(284.349 0 0)
(285.376 0 0)
(287.096 0 0)
(289.417 0 0)
(288.076 0 0)
(267.679 0 0)
(126.924 0 0)
(13.567 0 0)
(1.08509 0 0)
(0.081734 0 0)
(0.00609875 0 0)
(0.000453633 0 0)
(3.38962e-05 0 0)
(2.56102e-06 0 0)
(1.96835e-07 0 0)
(1.54638e-08 0 0)
(1.24442e-09 0 0)
(1.02416e-10 0 0)
(8.55323e-12 0 0)
(8.2209e-13 0 0)
(2.58981e-13 0 0)
(2.4613e-13 0 0)
(1.84876e-13 0 0)
(1.42308e-13 0 0)
(1.8583e-13 0 0)
(1.29992e-13 0 0)
(8.45335e-14 0 0)
(1.95206e-14 0 0)
(5.83991e-14 0 0)
(1.31527e-13 0 0)
(9.85636e-14 0 0)
(6.68956e-14 0 0)
(-5.22072e-14 0 0)
(-3.54202e-14 0 0)
)
;

boundaryField
{
    sides
    {
        type            zeroGradient;
    }
    empty
    {
        type            empty;
    }
}


// ************************************************************************* //
