/*--------------------------------*- C++ -*----------------------------------*\
| =========                 |                                                 |
| \\      /  F ield         | OpenFOAM: The Open Source CFD Toolbox           |
|  \\    /   O peration     | Version:  2312                                  |
|   \\  /    A nd           | Website:  www.openfoam.com                      |
|    \\/     M anipulation  |                                                 |
\*---------------------------------------------------------------------------*/
FoamFile
{
    version     2.0;
    format      ascii;
    arch        "LSB;label=32;scalar=64";
    class       volScalarField;
    location    "0.00015";
    object      p;
}
// * * * * * * * * * * * * * * * * * * * * * * * * * * * * * * * * * * * * * //

dimensions      [1 -1 -2 0 0 0 0];

internalField   nonuniform List<scalar> 
500
(
237956
238006
238036
238057
238073
238085
238096
238105
238114
238121
238128
238134
238140
238146
238151
238156
238161
238166
238170
238175
238179
238184
238188
238192
238196
238200
238204
238209
238213
238217
238221
238225
238229
238233
238238
238242
238246
238250
238255
238259
238264
238268
238273
238277
238282
238287
238292
238297
238302
238307
238312
238317
238323
238328
238334
238340
238346
238351
238358
238364
238370
238377
238383
238390
238397
238404
238411
238419
238426
238434
238442
238450
238458
238467
238475
238484
238494
238503
238513
238522
238532
238543
238553
238564
238575
238587
238599
238611
238623
238636
238649
238662
238676
238690
238705
238720
238735
238751
238767
238784
238801
238819
238837
238856
238875
238895
238916
238937
238958
238981
239004
239027
239052
239077
239103
239129
239157
239185
239215
239245
239276
239308
239341
239376
239411
239448
239485
239524
239564
239606
239649
239693
239739
239786
239835
239885
239938
239992
240047
240105
240165
240227
240291
240357
240425
240496
240570
240645
240724
240806
240890
240977
241068
241161
241258
241359
241463
241571
241683
241799
241919
242044
242173
242307
242446
242590
242739
242894
243055
243221
243394
243574
243760
243953
244153
244361
244577
244801
245033
245275
245525
245785
246054
246334
246625
246927
247240
247565
247903
248253
248617
248995
249387
249795
250217
250656
251112
251586
252077
252587
253117
253667
254239
254832
255447
256087
256751
257440
258155
258898
259670
260471
261302
262165
263061
263992
264957
265960
267001
268081
269203
270367
271575
272830
274132
275483
276886
278341
279852
281421
283048
284737
286490
288310
290198
292157
294190
296299
298489
300760
303117
305563
308101
310733
313465
316299
319239
322289
325453
328735
332140
335671
339334
343133
347073
351159
355396
359789
364345
369067
373964
379039
384300
389752
395403
401258
407324
413609
420119
426861
433843
441072
448554
456299
464312
472602
481174
490035
499189
508632
518370
528402
538720
549302
560110
571077
582088
592951
603344
612739
620266
624508
623198
612823
588265
542951
470910
372877
264249
174107
123575
105606
101159
100228
100043
100006
99999.3
99997.9
99997.6
99997.6
99997.6
99997.6
99997.6
99997.6
99997.6
99997.6
99997.6
99997.6
99997.6
99997.6
99997.6
99997.6
99997.6
99997.6
99997.6
99997.6
99997.6
99997.6
99997.6
99997.6
99997.6
99997.6
99997.6
99997.6
99997.6
99997.6
99997.6
99997.6
99997.6
99997.6
99997.6
99997.6
99997.6
99997.6
99997.6
99997.6
99997.6
99997.6
99997.6
99997.6
99997.6
99997.6
99997.6
99997.6
99997.6
99997.6
99997.6
99997.6
99997.6
99997.6
99997.6
99997.6
99997.6
99997.6
99997.6
99997.6
99997.6
99997.6
99997.6
99997.6
99997.6
99997.6
99997.6
99997.6
99997.6
99997.6
99997.6
99997.6
99997.6
99997.6
99997.6
99997.6
99997.6
99997.6
99997.6
99997.6
99997.6
99997.6
99997.6
99997.6
99997.6
99997.6
99997.6
99997.6
99997.6
99997.6
99997.6
99997.6
99997.6
99997.6
99997.6
99997.6
99997.6
99997.6
99997.6
99997.6
99997.6
99997.6
99997.6
99997.6
99997.6
99997.6
99997.6
99997.6
99997.6
99997.6
99997.6
99997.6
99997.6
99997.6
99997.6
99997.6
99997.6
99997.6
99997.6
99997.6
99997.6
99997.6
99997.6
99997.6
99997.6
99997.6
99997.6
99997.6
99997.6
99997.6
99997.6
99997.6
99997.6
99997.6
99997.6
99997.6
99997.6
99997.6
99997.6
99997.6
99997.6
99997.6
99997.6
99997.6
99997.6
99997.6
99997.6
99997.6
99997.6
99997.6
99997.6
99997.6
99997.6
99997.6
99997.6
99997.6
99997.6
99997.6
99997.6
99997.6
99997.6
99997.6
99997.6
99997.6
99997.6
99997.6
99997.6
99997.6
99997.6
99997.6
99997.6
99997.6
99997.6
99997.6
99997.6
99997.6
99997.6
99997.6
99997.6
99997.6
99997.6
99997.6
99997.6
99997.6
99997.6
99997.6
99997.6
99997.6
99997.6
99997.6
99997.6
99997.6
99997.6
99997.6
)
;

boundaryField
{
    wedge0
    {
        type            wedge;
    }
    wedge1
    {
        type            wedge;
    }
    wedge2
    {
        type            wedge;
    }
    wedge3
    {
        type            wedge;
    }
    outlet
    {
        type            zeroGradient;
    }
    defaultFaces
    {
        type            empty;
    }
}


// ************************************************************************* //
