/*--------------------------------*- C++ -*----------------------------------*\
| =========                 |                                                 |
| \\      /  F ield         | OpenFOAM: The Open Source CFD Toolbox           |
|  \\    /   O peration     | Version:  2312                                  |
|   \\  /    A nd           | Website:  www.openfoam.com                      |
|    \\/     M anipulation  |                                                 |
\*---------------------------------------------------------------------------*/
FoamFile
{
    version     2.0;
    format      ascii;
    arch        "LSB;label=32;scalar=64";
    class       volScalarField;
    location    "0.00015";
    object      rho;
}
// * * * * * * * * * * * * * * * * * * * * * * * * * * * * * * * * * * * * * //

dimensions      [1 -3 0 0 0 0 0];

internalField   nonuniform List<scalar> 
500
(
0.00472807
0.00472983
0.00473238
0.00473585
0.00474031
0.00474579
0.00475231
0.00475988
0.00476851
0.00477821
0.00478899
0.00480085
0.00481382
0.00482788
0.00484306
0.00485937
0.00487681
0.00489539
0.00491514
0.00493606
0.00495817
0.00498147
0.00500599
0.00503175
0.00505875
0.00508702
0.00511658
0.00514744
0.00517962
0.00521315
0.00524805
0.00528435
0.00532206
0.00536121
0.00540183
0.00544395
0.00548759
0.00553279
0.00557958
0.00562798
0.00567804
0.00572978
0.00578325
0.00583847
0.0058955
0.00595437
0.00601512
0.0060778
0.00614245
0.00620912
0.00627785
0.00634871
0.00642173
0.00649698
0.0065745
0.00665437
0.00673663
0.00682136
0.00690861
0.00699845
0.00709096
0.0071862
0.00728424
0.00738517
0.00748907
0.00759601
0.00770609
0.00781938
0.00793599
0.00805601
0.00817954
0.00830667
0.00843752
0.00857218
0.00871079
0.00885345
0.00900028
0.00915142
0.00930698
0.00946711
0.00963195
0.00980164
0.00997632
0.0101562
0.0103413
0.010532
0.0107283
0.0109304
0.0111385
0.0113529
0.0115737
0.0118011
0.0120353
0.0122766
0.0125251
0.0127812
0.013045
0.0133169
0.013597
0.0138858
0.0141833
0.01449
0.0148062
0.0151321
0.0154681
0.0158145
0.0161717
0.0165401
0.01692
0.0173118
0.017716
0.0181329
0.018563
0.0190067
0.0194646
0.0199371
0.0204246
0.0209278
0.0214472
0.0219833
0.0225368
0.0231082
0.0236981
0.0243072
0.0249362
0.0255858
0.0262567
0.0269497
0.0276654
0.0284048
0.0291686
0.0299578
0.0307732
0.0316157
0.0324864
0.0333861
0.0343159
0.0352769
0.0362703
0.037297
0.0383583
0.0394555
0.0405897
0.0417623
0.0429747
0.0442282
0.0455243
0.0468645
0.0482503
0.0496832
0.0511651
0.0526975
0.0542823
0.0559212
0.0576161
0.0593689
0.0611818
0.0630566
0.0649956
0.0670009
0.0690748
0.0712197
0.0734379
0.0757319
0.0781044
0.0805578
0.083095
0.0857187
0.0884318
0.0912372
0.0941381
0.0971375
0.100239
0.103445
0.10676
0.110186
0.113729
0.11739
0.121175
0.125086
0.129129
0.133306
0.137623
0.142084
0.146692
0.151454
0.156372
0.161452
0.1667
0.172119
0.177716
0.183495
0.189462
0.195622
0.201981
0.208545
0.215319
0.222311
0.229525
0.236969
0.244649
0.252571
0.260743
0.269171
0.277863
0.286826
0.296067
0.305594
0.315414
0.325537
0.33597
0.346721
0.357799
0.369213
0.380971
0.393084
0.40556
0.418408
0.43164
0.445264
0.459292
0.473734
0.4886
0.503902
0.519651
0.535858
0.552536
0.569697
0.587353
0.605517
0.624203
0.643423
0.663191
0.683521
0.704429
0.725928
0.748034
0.770762
0.794129
0.81815
0.842842
0.868223
0.894309
0.921119
0.94867
0.976982
1.00607
1.03596
1.06667
1.09822
1.13063
1.16392
1.19811
1.23322
1.26928
1.30631
1.34433
1.38336
1.42342
1.46455
1.50676
1.55007
1.59452
1.64012
1.68689
1.73486
1.78406
1.8345
1.88621
1.93921
1.99352
2.04917
2.10616
2.16453
2.22428
2.28544
2.34801
2.41201
2.47743
2.54414
2.61216
2.68153
2.75222
2.82413
2.89709
2.97081
3.04482
3.11834
3.19008
3.25792
3.31838
3.36578
3.39102
3.37985
3.31117
3.15694
2.88761
2.49512
2.0266
1.59621
1.31886
1.20298
1.17025
1.16288
1.16137
1.16107
1.16101
1.161
1.161
1.161
1.161
1.161
1.161
1.161
1.161
1.161
1.161
1.161
1.161
1.161
1.161
1.161
1.161
1.161
1.161
1.161
1.161
1.161
1.161
1.161
1.161
1.161
1.161
1.161
1.161
1.161
1.161
1.161
1.161
1.161
1.161
1.161
1.161
1.161
1.161
1.161
1.161
1.161
1.161
1.161
1.161
1.161
1.161
1.161
1.161
1.161
1.161
1.161
1.161
1.161
1.161
1.161
1.161
1.161
1.161
1.161
1.161
1.161
1.161
1.161
1.161
1.161
1.161
1.161
1.161
1.161
1.161
1.161
1.161
1.161
1.161
1.161
1.161
1.161
1.161
1.161
1.161
1.161
1.161
1.161
1.161
1.161
1.161
1.161
1.161
1.161
1.161
1.161
1.161
1.161
1.161
1.161
1.161
1.161
1.161
1.161
1.161
1.161
1.161
1.161
1.161
1.161
1.161
1.161
1.161
1.161
1.161
1.161
1.161
1.161
1.161
1.161
1.161
1.161
1.161
1.161
1.161
1.161
1.161
1.161
1.161
1.161
1.161
1.161
1.161
1.161
1.161
1.161
1.161
1.161
1.161
1.161
1.161
1.161
1.161
1.161
1.161
1.161
1.161
1.161
1.161
1.161
1.161
1.161
1.161
1.161
1.161
1.161
1.161
1.161
1.161
1.161
1.161
1.161
1.161
1.161
1.161
1.161
1.161
1.161
1.161
1.161
1.161
1.161
1.161
1.161
1.161
1.161
1.161
1.161
1.161
1.161
1.161
1.161
1.161
1.161
1.161
1.161
1.161
1.161
1.161
1.161
1.161
1.161
1.161
1.161
1.161
1.161
1.161
1.161
)
;

boundaryField
{
    wedge0
    {
        type            wedge;
    }
    wedge1
    {
        type            wedge;
    }
    wedge2
    {
        type            wedge;
    }
    wedge3
    {
        type            wedge;
    }
    outlet
    {
        type            zeroGradient;
    }
    defaultFaces
    {
        type            empty;
    }
}


// ************************************************************************* //
