/*--------------------------------*- C++ -*----------------------------------*\
| =========                 |                                                 |
| \\      /  F ield         | OpenFOAM: The Open Source CFD Toolbox           |
|  \\    /   O peration     | Version:  2312                                  |
|   \\  /    A nd           | Website:  www.openfoam.com                      |
|    \\/     M anipulation  |                                                 |
\*---------------------------------------------------------------------------*/
FoamFile
{
    version     2.0;
    format      ascii;
    arch        "LSB;label=32;scalar=64";
    class       volScalarField;
    location    "0.00015";
    object      T;
}
// * * * * * * * * * * * * * * * * * * * * * * * * * * * * * * * * * * * * * //

dimensions      [0 0 0 1 0 0 0];

internalField   nonuniform List<scalar> 
500
(
175298
175269
175197
175084
174931
174738
174506
174236
173926
173579
173193
172770
172309
171811
171276
170705
170098
169455
168778
168066
167320
166540
165727
164882
164004
163096
162157
161187
160188
159161
158105
157022
155912
154776
153615
152429
151219
149987
148732
147455
146158
144841
143505
142150
140778
139389
137984
136564
135129
133681
132221
130748
129264
127770
126266
124754
123233
121706
120172
118632
117088
115539
113987
112432
110876
109318
107760
106202
104645
103089
101535
99984.9
98437.8
96894.8
95356.5
93823.5
92296.3
90775.6
89261.9
87755.7
86257.6
84768
83287.4
81816.3
80355.2
78904.4
77464.5
76035.9
74618.8
73213.8
71821.2
70441.2
69074.3
67720.8
66381
65055.1
63743.4
62446.3
61163.8
59896.3
58643.9
57406.9
56185.4
54979.6
53789.7
52615.7
51457.9
50316.3
49191
48082.1
46989.8
45913.9
44854.7
43812.1
42786.2
41776.9
40784.3
39808.4
38849.1
37906.4
36980.4
36070.8
35177.8
34301.1
33440.8
32596.8
31768.9
30957.1
30161.2
29381.2
28616.9
27868.2
27135
26417.1
25714.3
25026.6
24353.8
23695.7
23052.1
22422.9
21807.9
21207
20619.8
20046.4
19486.4
18939.7
18406.1
17885.4
17377.4
16881.9
16398.7
15927.6
15468.4
15020.9
14584.9
14160.1
13746.5
13343.8
12951.7
12570.1
12198.7
11837.4
11486
11144.2
10811.9
10488.9
10174.9
9869.73
9573.25
9285.25
9005.52
8733.88
8470.14
8214.12
7965.62
7724.47
7490.49
7263.5
7043.32
6829.78
6622.72
6421.96
6227.35
6038.71
5855.9
5678.75
5507.11
5340.83
5179.77
5023.77
4872.69
4726.4
4584.77
4447.65
4314.91
4186.43
4062.09
3941.76
3825.32
3712.65
3603.65
3498.2
3396.2
3297.53
3202.1
3109.81
3020.55
2934.24
2850.78
2770.08
2692.06
2616.63
2543.71
2473.22
2405.08
2339.21
2275.55
2214.01
2154.54
2097.07
2041.52
1987.85
1935.98
1885.86
1837.43
1790.64
1745.43
1701.76
1659.56
1618.8
1579.42
1541.39
1504.65
1469.17
1434.9
1401.8
1369.84
1338.98
1309.18
1280.42
1252.65
1225.84
1199.97
1175
1150.9
1127.65
1105.22
1083.59
1062.72
1042.61
1023.21
1004.51
986.497
969.138
952.417
936.315
920.814
905.895
891.543
877.739
864.469
851.717
839.469
827.709
816.425
805.604
795.233
785.3
775.792
766.699
758.01
749.714
741.801
734.261
727.084
720.261
713.783
707.64
701.824
696.348
691.2
686.35
681.779
677.471
673.405
669.552
665.872
662.306
658.76
655.087
651.053
646.273
640.118
631.542
618.807
599.044
568.019
520.521
454.161
379.918
326.359
305.771
301.086
300.204
300.039
300.008
300.001
300
300
300
300
300
300
300
300
300
300
300
300
300
300
300
300
300
300
300
300
300
300
300
300
300
300
300
300
300
300
300
300
300
300
300
300
300
300
300
300
300
300
300
300
300
300
300
300
300
300
300
300
300
300
300
300
300
300
300
300
300
300
300
300
300
300
300
300
300
300
300
300
300
300
300
300
300
300
300
300
300
300
300
300
300
300
300
300
300
300
300
300
300
300
300
300
300
300
300
300
300
300
300
300
300
300
300
300
300
300
300
300
300
300
300
300
300
300
300
300
300
300
300
300
300
300
300
300
300
300
300
300
300
300
300
300
300
300
300
300
300
300
300
300
300
300
300
300
300
300
300
300
300
300
300
300
300
300
300
300
300
300
300
300
300
300
300
300
300
300
300
300
300
300
300
300
300
300
300
300
300
300
300
300
300
300
300
300
300
300
300
300
300
)
;

boundaryField
{
    wedge0
    {
        type            wedge;
    }
    wedge1
    {
        type            wedge;
    }
    wedge2
    {
        type            wedge;
    }
    wedge3
    {
        type            wedge;
    }
    outlet
    {
        type            zeroGradient;
    }
    defaultFaces
    {
        type            empty;
    }
}


// ************************************************************************* //
