/*--------------------------------*- C++ -*----------------------------------*\
| =========                 |                                                 |
| \\      /  F ield         | OpenFOAM: The Open Source CFD Toolbox           |
|  \\    /   O peration     | Version:  2312                                  |
|   \\  /    A nd           | Website:  www.openfoam.com                      |
|    \\/     M anipulation  |                                                 |
\*---------------------------------------------------------------------------*/
FoamFile
{
    version     2.0;
    format      ascii;
    arch        "LSB;label=32;scalar=64";
    class       volScalarField;
    location    "0.00015";
    object      thermo:e;
}
// * * * * * * * * * * * * * * * * * * * * * * * * * * * * * * * * * * * * * //

dimensions      [0 2 -2 0 0 0 0];

internalField   nonuniform List<scalar> 
500
(
1.25811e+08
1.25791e+08
1.25739e+08
1.25658e+08
1.25548e+08
1.2541e+08
1.25243e+08
1.25049e+08
1.24827e+08
1.24577e+08
1.24301e+08
1.23997e+08
1.23666e+08
1.23309e+08
1.22925e+08
1.22515e+08
1.22079e+08
1.21618e+08
1.21132e+08
1.20621e+08
1.20085e+08
1.19526e+08
1.18942e+08
1.18336e+08
1.17706e+08
1.17054e+08
1.1638e+08
1.15684e+08
1.14967e+08
1.1423e+08
1.13472e+08
1.12695e+08
1.11898e+08
1.11083e+08
1.10249e+08
1.09398e+08
1.0853e+08
1.07646e+08
1.06745e+08
1.05829e+08
1.04898e+08
1.03952e+08
1.02993e+08
1.02021e+08
1.01036e+08
1.00039e+08
9.90311e+07
9.80118e+07
9.69823e+07
9.59431e+07
9.48947e+07
9.38377e+07
9.27728e+07
9.17004e+07
9.06212e+07
8.95357e+07
8.84445e+07
8.73482e+07
8.62472e+07
8.51423e+07
8.40338e+07
8.29223e+07
8.18085e+07
8.06927e+07
7.95756e+07
7.84576e+07
7.73392e+07
7.6221e+07
7.51034e+07
7.39869e+07
7.2872e+07
7.17592e+07
7.06488e+07
6.95414e+07
6.84373e+07
6.73371e+07
6.62411e+07
6.51497e+07
6.40633e+07
6.29823e+07
6.19071e+07
6.0838e+07
5.97754e+07
5.87196e+07
5.76709e+07
5.66297e+07
5.55963e+07
5.4571e+07
5.35539e+07
5.25456e+07
5.1546e+07
5.05557e+07
4.95747e+07
4.86032e+07
4.76416e+07
4.669e+07
4.57487e+07
4.48177e+07
4.38972e+07
4.29875e+07
4.20887e+07
4.12009e+07
4.03243e+07
3.94589e+07
3.86048e+07
3.77623e+07
3.69313e+07
3.6112e+07
3.53044e+07
3.45086e+07
3.37246e+07
3.29524e+07
3.21922e+07
3.14439e+07
3.07076e+07
2.99833e+07
2.92709e+07
2.85705e+07
2.7882e+07
2.72055e+07
2.65408e+07
2.5888e+07
2.52471e+07
2.46179e+07
2.40005e+07
2.33947e+07
2.28005e+07
2.22179e+07
2.16467e+07
2.10869e+07
2.05384e+07
2.0001e+07
1.94748e+07
1.89595e+07
1.84552e+07
1.79616e+07
1.74787e+07
1.70064e+07
1.65445e+07
1.60929e+07
1.56515e+07
1.52202e+07
1.47989e+07
1.43873e+07
1.39854e+07
1.3593e+07
1.321e+07
1.28363e+07
1.24717e+07
1.21161e+07
1.17693e+07
1.14312e+07
1.11016e+07
1.07805e+07
1.04676e+07
1.01627e+07
9.86587e+06
9.57681e+06
9.29542e+06
9.02153e+06
8.75502e+06
8.49572e+06
8.24351e+06
7.99822e+06
7.75972e+06
7.52786e+06
7.3025e+06
7.0835e+06
6.87072e+06
6.66402e+06
6.46326e+06
6.26831e+06
6.07902e+06
5.89527e+06
5.71693e+06
5.54385e+06
5.37592e+06
5.21301e+06
5.05499e+06
4.90173e+06
4.75313e+06
4.60904e+06
4.46937e+06
4.33399e+06
4.20278e+06
4.07564e+06
3.95245e+06
3.83312e+06
3.71752e+06
3.60556e+06
3.49713e+06
3.39214e+06
3.29049e+06
3.19207e+06
3.09681e+06
3.0046e+06
2.91536e+06
2.829e+06
2.74543e+06
2.66457e+06
2.58634e+06
2.51066e+06
2.43745e+06
2.36664e+06
2.29815e+06
2.23191e+06
2.16785e+06
2.1059e+06
2.04601e+06
1.98809e+06
1.93209e+06
1.87796e+06
1.82562e+06
1.77503e+06
1.72612e+06
1.67885e+06
1.63316e+06
1.589e+06
1.54631e+06
1.50507e+06
1.4652e+06
1.42668e+06
1.38945e+06
1.35348e+06
1.31873e+06
1.28514e+06
1.2527e+06
1.22135e+06
1.19107e+06
1.16181e+06
1.13355e+06
1.10625e+06
1.07989e+06
1.05442e+06
1.02982e+06
1.00607e+06
983135
960986
939601
918955
899024
879785
861215
843294
826001
809315
793219
777692
762718
748278
734358
720940
708009
695550
683549
671993
660868
650161
639860
629953
620429
611277
602487
594047
585949
578182
570739
563610
556786
550260
544024
538070
532391
526979
521828
516931
512282
507873
503699
499769
496074
492593
489313
486221
483303
480537
477897
475337
472792
470156
467260
463830
459412
453258
444118
429934
407667
373578
325951
272667
234228
219452
216089
215457
215338
215315
215311
215310
215310
215310
215310
215310
215310
215310
215310
215310
215310
215310
215310
215310
215310
215310
215310
215310
215310
215310
215310
215310
215310
215310
215310
215310
215310
215310
215310
215310
215310
215310
215310
215310
215310
215310
215310
215310
215310
215310
215310
215310
215310
215310
215310
215310
215310
215310
215310
215310
215310
215310
215310
215310
215310
215310
215310
215310
215310
215310
215310
215310
215310
215310
215310
215310
215310
215310
215310
215310
215310
215310
215310
215310
215310
215310
215310
215310
215310
215310
215310
215310
215310
215310
215310
215310
215310
215310
215310
215310
215310
215310
215310
215310
215310
215310
215310
215310
215310
215310
215310
215310
215310
215310
215310
215310
215310
215310
215310
215310
215310
215310
215310
215310
215310
215310
215310
215310
215310
215310
215310
215310
215310
215310
215310
215310
215310
215310
215310
215310
215310
215310
215310
215310
215310
215310
215310
215310
215310
215310
215310
215310
215310
215310
215310
215310
215310
215310
215310
215310
215310
215310
215310
215310
215310
215310
215310
215310
215310
215310
215310
215310
215310
215310
215310
215310
215310
215310
215310
215310
215310
215310
215310
215310
215310
215310
215310
215310
215310
215310
215310
215310
215310
215310
215310
215310
215310
215310
215310
215310
215310
215310
215310
215310
)
;

boundaryField
{
    wedge0
    {
        type            wedge;
    }
    wedge1
    {
        type            wedge;
    }
    wedge2
    {
        type            wedge;
    }
    wedge3
    {
        type            wedge;
    }
    outlet
    {
        type            zeroGradient;
    }
    defaultFaces
    {
        type            empty;
    }
}


// ************************************************************************* //
