/*--------------------------------*- C++ -*----------------------------------*\
| =========                 |                                                 |
| \\      /  F ield         | OpenFOAM: The Open Source CFD Toolbox           |
|  \\    /   O peration     | Version:  2312                                  |
|   \\  /    A nd           | Website:  www.openfoam.com                      |
|    \\/     M anipulation  |                                                 |
\*---------------------------------------------------------------------------*/
FoamFile
{
    version     2.0;
    format      ascii;
    arch        "LSB;label=32;scalar=64";
    class       volVectorField;
    location    "0.00015";
    object      U;
}
// * * * * * * * * * * * * * * * * * * * * * * * * * * * * * * * * * * * * * //

dimensions      [0 1 -1 0 0 0 0];

internalField   nonuniform List<vector> 
500
(
(1.55823 -3.49992e-10 3.52331e-10)
(2.8055 -3.46351e-10 3.46854e-10)
(4.19672 -3.5458e-10 3.54629e-10)
(5.67438 -3.50533e-10 3.50902e-10)
(7.18654 -3.35273e-10 3.35436e-10)
(8.71538 -3.31507e-10 3.31501e-10)
(10.2535 -3.25602e-10 3.25556e-10)
(11.7973 -3.18489e-10 3.18458e-10)
(13.3447 -3.04739e-10 3.04726e-10)
(14.8948 -2.85741e-10 2.85768e-10)
(16.4467 -2.69619e-10 2.69606e-10)
(18 -2.54008e-10 2.54e-10)
(19.5543 -2.40068e-10 2.40068e-10)
(21.1095 -2.25478e-10 2.25482e-10)
(22.6654 -2.09923e-10 2.09947e-10)
(24.2218 -1.97102e-10 1.97123e-10)
(25.7786 -1.85337e-10 1.85335e-10)
(27.3359 -1.76957e-10 1.7696e-10)
(28.8934 -1.68571e-10 1.6856e-10)
(30.4513 -1.6505e-10 1.65056e-10)
(32.0094 -1.62575e-10 1.62587e-10)
(33.5677 -1.60071e-10 1.60073e-10)
(35.1262 -1.58461e-10 1.58455e-10)
(36.6848 -1.56959e-10 1.56961e-10)
(38.2437 -1.54687e-10 1.54689e-10)
(39.8026 -1.51529e-10 1.51534e-10)
(41.3617 -1.4898e-10 1.48978e-10)
(42.921 -1.4594e-10 1.45941e-10)
(44.4803 -1.40979e-10 1.40979e-10)
(46.0398 -1.35777e-10 1.35773e-10)
(47.5993 -1.31207e-10 1.31209e-10)
(49.1589 -1.27007e-10 1.27009e-10)
(50.7187 -1.20036e-10 1.20038e-10)
(52.2785 -1.14531e-10 1.14532e-10)
(53.8384 -1.08798e-10 1.08798e-10)
(55.3984 -1.0431e-10 1.0431e-10)
(56.9584 -1.00393e-10 1.00393e-10)
(58.5186 -9.62678e-11 9.62678e-11)
(60.0788 -9.25624e-11 9.25624e-11)
(61.6391 -8.87135e-11 8.87135e-11)
(63.1994 -8.37547e-11 8.37547e-11)
(64.7599 -7.84437e-11 7.84437e-11)
(66.3204 -7.34654e-11 7.34654e-11)
(67.8809 -6.81842e-11 6.81842e-11)
(69.4416 -6.33085e-11 6.33085e-11)
(71.0023 -5.81831e-11 5.81831e-11)
(72.5631 -5.28092e-11 5.28092e-11)
(74.124 -4.7212e-11 4.7212e-11)
(75.6849 -4.14325e-11 4.14325e-11)
(77.246 -3.63132e-11 3.63132e-11)
(78.8071 -3.15462e-11 3.15462e-11)
(80.3682 -2.65912e-11 2.65912e-11)
(81.9295 -2.21782e-11 2.21782e-11)
(83.4908 -1.75756e-11 1.75756e-11)
(85.0522 -1.33762e-11 1.33762e-11)
(86.6137 -9.63659e-12 9.63659e-12)
(88.1752 -6.32016e-12 6.32016e-12)
(89.7369 -3.18765e-12 3.18765e-12)
(91.2986 -2.03017e-13 2.03017e-13)
(92.8604 2.43381e-12 -2.43381e-12)
(94.4223 3.70142e-12 -3.70142e-12)
(95.9843 5.03219e-12 -5.03219e-12)
(97.5464 5.85147e-12 -5.85147e-12)
(99.1086 6.19916e-12 -6.19916e-12)
(100.671 6.10418e-12 -6.10418e-12)
(102.233 5.98639e-12 -5.98639e-12)
(103.796 5.92745e-12 -5.92745e-12)
(105.358 5.9391e-12 -5.9391e-12)
(106.921 5.56931e-12 -5.56931e-12)
(108.484 5.37735e-12 -5.37735e-12)
(110.047 4.89731e-12 -4.89731e-12)
(111.61 4.74482e-12 -4.74482e-12)
(113.173 4.56088e-12 -4.56088e-12)
(114.736 4.63502e-12 -4.63502e-12)
(116.299 4.70195e-12 -4.70201e-12)
(117.863 4.73836e-12 -4.73872e-12)
(119.426 4.48779e-12 -4.48625e-12)
(120.99 4.09497e-12 -4.09494e-12)
(122.554 3.89505e-12 -3.89533e-12)
(124.118 3.6988e-12 -3.69634e-12)
(125.682 3.57539e-12 -3.53873e-12)
(127.247 3.21383e-12 -3.14446e-12)
(128.811 2.62615e-12 -2.52308e-12)
(130.376 1.81602e-12 -1.67722e-12)
(131.94 7.92503e-13 -6.20606e-13)
(133.505 -3.09299e-13 4.52109e-13)
(135.07 -1.19725e-12 1.31244e-12)
(136.636 -1.88792e-12 1.97879e-12)
(138.201 -2.38456e-12 2.45097e-12)
(139.767 -2.69862e-12 2.74086e-12)
(141.333 -2.83625e-12 2.8537e-12)
(142.899 -2.80014e-12 2.79249e-12)
(144.465 -2.73811e-12 2.75142e-12)
(146.031 -2.56354e-12 2.60157e-12)
(147.598 -2.22986e-12 2.29404e-12)
(149.165 -1.82992e-12 1.83341e-12)
(150.732 -1.57694e-12 1.45566e-12)
(152.299 -1.22817e-12 1.22614e-12)
(153.867 -8.96346e-13 9.07957e-13)
(155.435 -5.71395e-13 5.99174e-13)
(157.003 -3.80903e-13 4.24923e-13)
(158.571 -2.60258e-13 3.16614e-13)
(160.14 -7.12205e-14 8.10683e-14)
(161.709 9.50394e-14 -1.48644e-13)
(163.278 3.82537e-13 -5.01623e-13)
(164.847 7.93097e-13 -9.00109e-13)
(166.417 1.09818e-12 -1.19393e-12)
(167.987 1.52542e-12 -1.60928e-12)
(169.558 1.85864e-12 -1.93045e-12)
(171.128 2.30809e-12 -2.36801e-12)
(172.7 2.87629e-12 -2.92415e-12)
(174.271 3.55667e-12 -3.58881e-12)
(175.843 3.79283e-12 -3.80861e-12)
(177.415 3.95592e-12 -3.95551e-12)
(178.988 4.16203e-12 -4.16187e-12)
(180.561 4.12916e-12 -4.12901e-12)
(182.134 3.8553e-12 -3.85514e-12)
(183.708 3.55248e-12 -3.5915e-12)
(185.283 3.26216e-12 -3.25456e-12)
(186.857 2.96114e-12 -2.95737e-12)
(188.433 2.88527e-12 -2.88542e-12)
(190.009 2.83865e-12 -2.83833e-12)
(191.585 2.65758e-12 -2.65699e-12)
(193.162 2.41833e-12 -2.41763e-12)
(194.739 2.19766e-12 -2.19798e-12)
(196.317 2.0796e-12 -2.07975e-12)
(197.896 1.83797e-12 -1.83795e-12)
(199.475 1.4982e-12 -1.49775e-12)
(201.055 1.19389e-12 -1.1937e-12)
(202.636 7.59988e-13 -7.59987e-13)
(204.217 4.13935e-13 -4.1406e-13)
(205.799 1.57343e-13 -1.57653e-13)
(207.382 -7.13141e-15 7.11724e-15)
(208.965 -1.84857e-13 1.84852e-13)
(210.549 -2.81741e-13 2.81738e-13)
(212.134 -2.87512e-13 2.87511e-13)
(213.72 -1.98489e-13 1.98488e-13)
(215.307 -1.98429e-13 1.98429e-13)
(216.895 -1.97274e-13 1.97274e-13)
(218.483 -1.96351e-13 1.96351e-13)
(220.073 -1.95381e-13 1.95381e-13)
(221.663 -1.94078e-13 1.94078e-13)
(223.255 -2.30127e-13 2.30127e-13)
(224.848 -1.91457e-13 1.91457e-13)
(226.442 -1.90113e-13 1.90113e-13)
(228.037 -1.62811e-13 1.62811e-13)
(229.633 -2.0798e-13 2.0798e-13)
(231.231 -1.87795e-13 1.87795e-13)
(232.829 -1.51574e-13 1.51571e-13)
(234.43 -7.33515e-14 7.33376e-14)
(236.031 -5.266e-14 5.28549e-14)
(237.634 -7.74213e-14 7.76075e-14)
(239.239 -4.26059e-14 4.27836e-14)
(240.845 -3.78197e-14 3.79892e-14)
(242.453 -9.3062e-14 9.32213e-14)
(244.062 -9.87079e-14 9.88572e-14)
(245.673 -1.27374e-13 1.27566e-13)
(247.286 -1.67337e-13 1.67624e-13)
(248.901 -1.61006e-13 1.61358e-13)
(250.518 -2.08512e-13 2.08751e-13)
(252.137 -2.15322e-13 2.15476e-13)
(253.758 -1.75429e-13 1.75472e-13)
(255.381 -1.74874e-13 1.74838e-13)
(257.007 -2.43976e-13 2.43968e-13)
(258.634 -1.89701e-13 1.89621e-13)
(260.265 -1.71779e-13 1.71861e-13)
(261.897 -1.71171e-13 1.7124e-13)
(263.533 -1.50689e-13 1.50738e-13)
(265.171 -1.70046e-13 1.70093e-13)
(266.812 -2.3586e-13 2.35766e-13)
(268.456 -2.87637e-13 2.87558e-13)
(270.104 -3.95806e-13 3.95654e-13)
(271.754 -4.99578e-13 4.99363e-13)
(273.408 -6.01395e-13 6.01038e-13)
(275.065 -7.04652e-13 7.04376e-13)
(276.725 -7.41297e-13 7.41199e-13)
(278.39 -7.35742e-13 7.35622e-13)
(280.058 -7.07462e-13 7.07275e-13)
(281.73 -6.49453e-13 6.49131e-13)
(283.407 -4.87393e-13 4.86954e-13)
(285.088 -3.54224e-13 3.53807e-13)
(286.773 -2.75638e-13 2.75265e-13)
(288.463 -2.05384e-13 2.0495e-13)
(290.158 -1.43512e-13 1.43116e-13)
(291.857 -9.05563e-14 9.01992e-14)
(293.562 -4.7581e-14 4.73367e-14)
(295.273 -1.64023e-14 1.62208e-14)
(296.989 0 0)
(298.711 0 0)
(300.439 1.27114e-14 -1.27114e-14)
(302.173 5.27819e-14 -5.27819e-14)
(303.914 5.13374e-14 -5.13374e-14)
(305.662 2.64025e-14 -2.64025e-14)
(307.416 2.2754e-15 -2.2754e-15)
(309.178 2.33473e-14 -2.33473e-14)
(310.947 0 0)
(312.725 -3.75061e-14 3.75061e-14)
(314.51 -3.64341e-14 3.64341e-14)
(316.304 -1.43828e-14 1.43828e-14)
(318.107 3.84357e-14 -3.84614e-14)
(319.918 7.36955e-14 -7.3384e-14)
(321.739 7.97906e-14 -7.97019e-14)
(323.57 7.6521e-14 -7.64242e-14)
(325.411 5.42368e-14 -5.40921e-14)
(327.263 1.90927e-14 -1.89719e-14)
(329.125 4.81853e-15 -4.69865e-15)
(330.998 2.16438e-14 -2.15288e-14)
(332.883 3.35123e-15 -3.27381e-15)
(334.781 1.7377e-14 -1.72714e-14)
(336.69 4.64348e-15 -4.54578e-15)
(338.613 -1.61671e-15 1.72773e-15)
(340.549 -8.50977e-15 8.55715e-15)
(342.498 -3.53848e-14 3.54436e-14)
(344.462 -5.34225e-14 5.34867e-14)
(346.441 -7.63212e-14 7.63989e-14)
(348.435 -9.28205e-14 9.28773e-14)
(350.445 -9.94965e-14 9.95174e-14)
(352.471 -8.74882e-14 8.74995e-14)
(354.514 -8.57285e-14 8.57244e-14)
(356.575 -8.7435e-14 8.7437e-14)
(358.653 -8.75063e-14 8.75073e-14)
(360.75 -7.5394e-14 7.54188e-14)
(362.866 -5.95075e-14 5.95235e-14)
(365.002 -4.3844e-14 4.3844e-14)
(367.158 -1.40223e-14 1.40223e-14)
(369.336 -2.36837e-14 2.36837e-14)
(371.535 -4.36246e-14 4.36246e-14)
(373.756 -6.8596e-14 6.8596e-14)
(376 -5.65228e-14 5.65228e-14)
(378.269 -5.60143e-14 5.60143e-14)
(380.561 -8.34383e-14 8.34383e-14)
(382.878 -8.62309e-14 8.62309e-14)
(385.222 -8.9905e-14 8.9905e-14)
(387.592 -8.26473e-14 8.26473e-14)
(389.989 -8.92404e-14 8.92404e-14)
(392.414 -9.21777e-14 9.21777e-14)
(394.868 -8.51283e-14 8.51283e-14)
(397.351 -8.69455e-14 8.69455e-14)
(399.865 -7.7287e-14 7.7287e-14)
(402.409 -7.356e-14 7.356e-14)
(404.986 -9.29592e-14 9.29592e-14)
(407.595 -9.89158e-14 9.89158e-14)
(410.237 -1.10189e-13 1.10189e-13)
(412.913 -9.3932e-14 9.3932e-14)
(415.624 -7.21326e-14 7.21326e-14)
(418.371 -6.67845e-14 6.67845e-14)
(421.155 -7.80484e-14 7.80484e-14)
(423.975 -7.90493e-14 7.90493e-14)
(426.833 -7.17763e-14 7.17763e-14)
(429.73 -7.43306e-14 7.43306e-14)
(432.666 -7.35904e-14 7.35904e-14)
(435.643 -5.8833e-14 5.8833e-14)
(438.66 -4.97377e-14 4.97377e-14)
(441.718 -4.25136e-14 4.25136e-14)
(444.818 -3.58372e-14 3.58372e-14)
(447.961 -2.98015e-14 2.98015e-14)
(451.147 -2.51591e-14 2.51591e-14)
(454.377 -2.72149e-14 2.72149e-14)
(457.652 -2.19397e-14 2.19397e-14)
(460.971 -1.70649e-14 1.70649e-14)
(464.335 -1.25623e-14 1.25623e-14)
(467.746 -8.40092e-15 8.40092e-15)
(471.202 -4.50538e-15 4.50538e-15)
(474.704 -2.99026e-16 2.99026e-16)
(478.254 9.93928e-15 -9.93928e-15)
(481.85 1.30321e-14 -1.30321e-14)
(485.494 2.08603e-14 -2.08603e-14)
(489.185 2.25249e-14 -2.25249e-14)
(492.923 2.04945e-14 -2.04945e-14)
(496.709 1.57009e-14 -1.57009e-14)
(500.542 1.20918e-14 -1.20918e-14)
(504.422 8.40391e-15 -8.40391e-15)
(508.348 5.19734e-15 -5.19734e-15)
(512.321 3.0976e-15 -3.0976e-15)
(516.339 5.40399e-16 -5.40399e-16)
(520.402 -9.75334e-15 9.75334e-15)
(524.509 -6.71738e-15 6.71738e-15)
(528.657 -2.97296e-15 2.97296e-15)
(532.844 0 -9.8114e-35)
(537.074 0 1.09803e-34)
(541.336 0 1.50713e-35)
(545.622 4.07507e-16 -4.07507e-16)
(549.918 9.39654e-15 -9.39654e-15)
(554.208 6.13935e-15 -6.13935e-15)
(558.462 -2.421e-15 2.421e-15)
(562.638 -7.17351e-16 7.17351e-16)
(566.665 0 8.40457e-36)
(570.432 0 0)
(573.761 -6.93402e-15 6.93402e-15)
(576.365 -4.4069e-15 4.4069e-15)
(577.777 -2.0452e-15 2.0452e-15)
(577.236 4.48054e-15 -4.48054e-15)
(573.502 -1.78149e-15 1.78149e-15)
(564.553 0 2.46171e-36)
(547.13 0 0)
(516.119 2.55489e-15 -2.55489e-15)
(464.273 -4.56363e-16 4.56363e-16)
(383.54 0 2.65658e-37)
(271.781 0 0)
(147.514 0 0)
(54.1567 -2.05291e-15 2.05291e-15)
(13.7027 -2.40884e-16 2.40884e-16)
(2.87644 -2.55043e-15 2.55043e-15)
(0.571258 0 0)
(0.111655 2.4378e-15 -2.4378e-15)
(0.0216594 0 0)
(0.00417713 0 0)
(0.000801183 0 0)
(0.000152847 -4.74853e-15 4.74853e-15)
(2.90054e-05 -4.73562e-15 4.73562e-15)
(5.47545e-06 -1.60424e-17 1.60424e-17)
(1.02825e-06 0 0)
(1.92097e-07 0 0)
(3.56995e-08 0 0)
(6.59821e-09 2.28567e-15 -2.28567e-15)
(1.21136e-09 0 0)
(2.23057e-10 0 0)
(6.37338e-11 -3.86027e-16 3.86027e-16)
(4.61689e-11 -5.23968e-15 5.23968e-15)
(3.06135e-11 -1.4505e-14 1.4505e-14)
(5.37986e-12 -1.92968e-14 1.92968e-14)
(-6.01919e-12 -1.96675e-14 1.96675e-14)
(1.00247e-11 -1.56786e-14 1.56786e-14)
(2.15606e-11 -1.60436e-14 1.60436e-14)
(1.80758e-11 -1.20994e-14 1.20994e-14)
(2.9753e-12 -3.89793e-15 3.89793e-15)
(-6.0287e-12 0 0)
(-7.46375e-12 0 0)
(-6.83219e-12 2.09321e-15 -2.09321e-15)
(-5.65475e-13 0 0)
(8.76574e-12 0 0)
(1.74722e-11 0 0)
(2.19774e-11 0 0)
(8.7917e-12 -4.06528e-15 4.06528e-15)
(-1.01572e-11 -4.05175e-15 4.05175e-15)
(-1.79558e-11 -1.27789e-17 1.27789e-17)
(-1.72434e-11 0 0)
(-2.53219e-11 0 0)
(-2.84886e-11 0 0)
(-2.70968e-11 0 0)
(-3.30428e-11 0 0)
(-1.38211e-11 -1.93853e-15 1.93853e-15)
(2.02194e-13 0 0)
(-9.4023e-12 0 0)
(-1.00607e-11 1.90451e-15 -1.90451e-15)
(1.04786e-11 2.80426e-18 -2.80426e-18)
(1.89325e-11 1.88459e-15 -1.88459e-15)
(8.57843e-12 0 0)
(-4.01092e-12 -3.09657e-15 3.09657e-15)
(-7.43101e-12 -2.46339e-15 2.46339e-15)
(-1.11526e-12 -5.52185e-15 5.52185e-15)
(-8.81051e-13 -4.89177e-15 4.89177e-15)
(7.41603e-12 -6.19043e-16 6.19043e-16)
(1.38195e-11 0 0)
(1.13087e-11 0 0)
(2.85799e-12 1.78719e-15 -1.78719e-15)
(-6.52431e-12 0 0)
(-7.19893e-12 -4.24298e-15 4.24298e-15)
(-3.78438e-12 -4.93481e-15 4.93481e-15)
(-5.02613e-12 -2.11276e-15 2.11276e-15)
(-1.30517e-11 -2.79298e-15 2.79298e-15)
(-1.98031e-11 0 0)
(-1.82616e-11 0 0)
(3.29789e-12 -1.71201e-15 1.71201e-15)
(8.90291e-12 -2.72566e-18 2.72566e-18)
(1.07307e-11 -1.69337e-15 1.69337e-15)
(1.67127e-11 0 0)
(-4.07062e-12 1.67258e-15 -1.67258e-15)
(-2.89333e-11 0 0)
(-2.38869e-11 0 0)
(-9.76586e-12 -7.97392e-16 7.97392e-16)
(-1.44148e-11 -4.87665e-15 4.87665e-15)
(-1.554e-11 -5.66711e-15 5.66711e-15)
(-1.51364e-11 -9.70041e-15 9.70041e-15)
(-1.27416e-11 -1.048e-14 1.048e-14)
(-1.61566e-11 -8.04023e-15 8.04023e-15)
(-1.9415e-11 -2.41559e-15 2.41559e-15)
(-1.44145e-11 0 0)
(-1.29654e-11 0 0)
(-6.88313e-12 1.57121e-15 -1.57121e-15)
(-9.01844e-12 2.71733e-18 -2.71733e-18)
(-2.37163e-11 1.55321e-15 -1.55321e-15)
(-2.90895e-11 0 0)
(-1.63736e-11 0 0)
(5.78748e-13 -1.52913e-15 1.52913e-15)
(-3.46327e-12 0 0)
(-8.29196e-12 0 0)
(7.3156e-12 0 0)
(1.64977e-11 2.99664e-15 -2.99664e-15)
(8.13433e-12 2.98768e-15 -2.98768e-15)
(7.58374e-12 8.73602e-18 -8.73602e-18)
(2.04186e-11 0 0)
(1.47167e-11 0 0)
(6.25609e-14 1.46022e-15 -1.46022e-15)
(-4.12553e-12 0 0)
(5.75302e-12 0 0)
(1.63792e-11 0 0)
(1.82061e-11 0 0)
(1.20696e-11 0 0)
(2.92955e-12 0 0)
(4.66411e-12 0 0)
(9.39031e-12 0 0)
(1.70424e-11 5.96173e-16 -5.96173e-16)
(3.512e-11 3.97407e-15 -3.97407e-15)
(3.51822e-11 1.01029e-14 -1.01029e-14)
(1.74813e-11 1.34448e-14 -1.34448e-14)
(6.66472e-12 1.40274e-14 -1.40274e-14)
(-5.21418e-13 6.41929e-15 -6.41929e-15)
(-1.02921e-11 1.56298e-15 -1.56298e-15)
(-1.46e-11 -5.68979e-16 5.68979e-16)
(-1.50811e-11 0 0)
(-1.21923e-11 0 0)
(-2.24806e-12 0 0)
(1.4328e-14 0 0)
(6.16036e-12 0 0)
(1.33024e-11 0 0)
(1.4035e-11 0 0)
(8.18226e-12 0 0)
(6.34176e-12 -8.60948e-16 8.60948e-16)
(2.47538e-11 8.55089e-16 -8.55089e-16)
(4.14012e-11 0 0)
(4.5024e-11 0 0)
(2.96198e-11 -1.26745e-15 1.26745e-15)
(1.35165e-11 -1.79693e-18 1.79693e-18)
(3.46635e-12 -1.25511e-15 1.25511e-15)
(-4.4618e-12 -1.53986e-18 1.53986e-18)
(-1.08174e-11 -1.24361e-15 1.24361e-15)
(-1.6681e-11 0 0)
(-1.94563e-11 -8.2209e-16 8.2209e-16)
(-2.30671e-11 8.16089e-16 -8.16089e-16)
(-1.39902e-11 0 0)
(-2.53408e-11 1.2147e-15 -1.2147e-15)
(-2.24983e-11 -8.06638e-19 8.06638e-19)
(-2.02839e-12 1.20146e-15 -1.20146e-15)
(1.11038e-11 0 0)
(2.43524e-11 7.95051e-16 -7.95051e-16)
(2.84384e-11 -7.89788e-16 7.89788e-16)
(1.12751e-11 0 0)
(-5.29126e-12 -9.22231e-16 9.22231e-16)
(-7.44603e-12 -4.1856e-15 4.1856e-15)
(-1.14797e-11 -9.76843e-15 9.76843e-15)
(-1.76552e-11 -8.35228e-15 8.35228e-15)
(-2.49339e-11 0 0)
(-2.61639e-11 8.27119e-15 -8.27119e-15)
(-1.55703e-11 9.62641e-15 -9.62641e-15)
(-2.38164e-12 4.1287e-15 -4.1287e-15)
(-1.32938e-12 9.26006e-16 -9.26006e-16)
(1.84789e-11 0 0)
(4.8084e-11 9.53667e-16 -9.53667e-16)
(4.43514e-11 4.14434e-15 -4.14434e-15)
(2.13933e-11 6.24716e-16 -6.24716e-16)
(2.46285e-11 -1.84751e-15 1.84751e-15)
(3.33148e-11 -6.52137e-15 6.52137e-15)
(2.25732e-11 -4.56578e-15 4.56578e-15)
(8.87182e-12 -4.81181e-15 4.81181e-15)
(-7.2254e-13 -7.23931e-15 7.23931e-15)
(9.61826e-13 -1.18288e-14 1.18288e-14)
(9.961e-13 -1.85624e-14 1.85624e-14)
(-3.74213e-12 -2.70983e-14 2.70983e-14)
(-1.05972e-11 -2.95265e-14 2.95265e-14)
(-1.64585e-11 -2.98094e-14 2.98094e-14)
(-1.79369e-11 -2.66633e-14 2.66633e-14)
(-2.27591e-11 -1.71776e-14 1.71776e-14)
(-1.81656e-11 -9.7045e-15 9.7045e-15)
(-7.87241e-12 -4.36251e-15 4.36251e-15)
(-9.77509e-12 -1.13363e-15 1.13363e-15)
(1.78729e-12 0 0)
(2.55913e-11 0 0)
(1.41638e-11 0 0)
(-2.50702e-12 0 0)
(-9.82356e-12 0 0)
(-2.94042e-12 6.73757e-16 -6.73757e-16)
(1.21406e-11 3.28781e-15 -3.28781e-15)
(1.79968e-12 -1.70447e-16 1.70447e-16)
(-1.31942e-11 -5.62463e-15 5.62463e-15)
(-8.52942e-12 -5.04451e-15 5.04451e-15)
(1.0718e-11 -6.46041e-15 6.46041e-15)
(2.16022e-11 -1.91121e-15 1.91121e-15)
(1.19405e-11 6.41744e-16 -6.41744e-16)
(-1.63934e-11 3.70594e-15 -3.70594e-15)
(-4.2577e-11 8.70948e-16 -8.70948e-16)
(-4.45423e-11 0 0)
(-2.69249e-11 0 0)
(-2.63101e-11 -3.47376e-16 3.47376e-16)
(-3.24215e-11 -2.62243e-15 2.62243e-15)
(-1.03605e-11 -6.80792e-15 6.80792e-15)
(1.43269e-11 -5.23554e-15 5.23554e-15)
(1.69267e-11 -9.38642e-15 9.38642e-15)
(-1.81937e-12 -1.54183e-14 1.54183e-14)
(-1.72713e-11 -2.32286e-14 2.32286e-14)
(-1.32387e-11 -2.53403e-14 2.53403e-14)
(-6.76741e-12 -2.35629e-14 2.35629e-14)
(-1.06865e-12 -1.61882e-14 1.61882e-14)
(4.78847e-12 -1.06117e-14 1.06117e-14)
(1.16182e-11 -6.90978e-15 6.90978e-15)
(3.13439e-11 -5.06737e-15 5.06737e-15)
(3.57788e-11 -5.06945e-15 5.06945e-15)
(2.58227e-11 -6.90055e-15 6.90055e-15)
(8.6525e-12 -3.25693e-15 3.25693e-15)
(-8.80187e-12 -1.44176e-15 1.44176e-15)
)
;

boundaryField
{
    wedge0
    {
        type            wedge;
    }
    wedge1
    {
        type            wedge;
    }
    wedge2
    {
        type            wedge;
    }
    wedge3
    {
        type            wedge;
    }
    outlet
    {
        type            zeroGradient;
    }
    defaultFaces
    {
        type            empty;
    }
}


// ************************************************************************* //
