/*--------------------------------*- C++ -*----------------------------------*\
| =========                 |                                                 |
| \\      /  F ield         | OpenFOAM: The Open Source CFD Toolbox           |
|  \\    /   O peration     | Version:  2312                                  |
|   \\  /    A nd           | Website:  www.openfoam.com                      |
|    \\/     M anipulation  |                                                 |
\*---------------------------------------------------------------------------*/
FoamFile
{
    version     2.0;
    format      ascii;
    arch        "LSB;label=32;scalar=64";
    class       volScalarField;
    location    "9e-05";
    object      p;
}
// * * * * * * * * * * * * * * * * * * * * * * * * * * * * * * * * * * * * * //

dimensions      [1 -1 -2 0 0 0 0];

internalField   nonuniform List<scalar> 
100
(
4.63368e+07
4.63368e+07
4.63368e+07
4.63368e+07
4.63368e+07
4.63368e+07
4.63368e+07
4.63368e+07
4.63368e+07
4.63368e+07
4.63368e+07
4.63368e+07
4.63368e+07
4.6337e+07
4.63382e+07
4.63506e+07
4.64764e+07
4.77378e+07
5.91079e+07
1.20199e+08
2.68084e+08
4.49249e+08
5.8258e+08
6.46994e+08
6.67422e+08
6.70387e+08
6.68779e+08
6.66641e+08
6.64777e+08
6.63227e+08
6.61939e+08
6.60874e+08
6.60012e+08
6.59343e+08
6.58827e+08
6.58365e+08
6.57882e+08
6.57459e+08
6.5729e+08
6.57454e+08
6.57718e+08
6.57639e+08
6.57016e+08
6.56634e+08
6.68588e+08
6.76497e+08
6.58451e+08
6.5762e+08
6.58161e+08
6.58367e+08
6.58321e+08
6.58315e+08
6.58504e+08
6.58891e+08
6.59394e+08
6.59925e+08
6.60425e+08
6.6088e+08
6.61307e+08
6.61739e+08
6.62203e+08
6.62711e+08
6.63257e+08
6.6383e+08
6.64416e+08
6.65007e+08
6.65599e+08
6.66194e+08
6.66794e+08
6.67403e+08
6.6802e+08
6.68647e+08
6.69284e+08
6.69934e+08
6.706e+08
6.71289e+08
6.72006e+08
6.7276e+08
6.73556e+08
6.74403e+08
6.75307e+08
6.76274e+08
6.7731e+08
6.78422e+08
6.79616e+08
6.80901e+08
6.82282e+08
6.83767e+08
6.85365e+08
6.87083e+08
6.8893e+08
6.90915e+08
6.93046e+08
6.95333e+08
6.97784e+08
7.00407e+08
7.03211e+08
7.06192e+08
7.09294e+08
7.12122e+08
)
;

boundaryField
{
    sides
    {
        type            zeroGradient;
    }
    empty
    {
        type            empty;
    }
}


// ************************************************************************* //
