/*--------------------------------*- C++ -*----------------------------------*\
| =========                 |                                                 |
| \\      /  F ield         | OpenFOAM: The Open Source CFD Toolbox           |
|  \\    /   O peration     | Version:  2312                                  |
|   \\  /    A nd           | Website:  www.openfoam.com                      |
|    \\/     M anipulation  |                                                 |
\*---------------------------------------------------------------------------*/
FoamFile
{
    version     2.0;
    format      ascii;
    arch        "LSB;label=32;scalar=64";
    class       volScalarField;
    location    "9e-05";
    object      p;
}
// * * * * * * * * * * * * * * * * * * * * * * * * * * * * * * * * * * * * * //

dimensions      [1 -1 -2 0 0 0 0];

internalField   nonuniform List<scalar> 
100
(
1263.19
1263.19
1263.19
1263.19
1263.19
1263.19
1263.19
1263.19
1263.19
1263.19
1263.19
1263.19
1263.19
1263.19
1263.19
1263.19
1263.19
1263.19
1263.19
1263.19
1263.19
1263.19
1263.19
1263.19
1263.19
1263.19
1263.19
1263.19
1263.19
1263.19
1263.19
1263.19
1263.19
1263.19
1263.19
1263.19
1263.19
1263.19
1263.19
1263.19
1263.19
1263.19
1263.19
1263.22
1356.32
5201.63
20488.9
62633.9
154389
203055
155598
144001
142121
141909
141895
141894
141894
141894
141894
141894
141894
141894
141894
141894
141894
141894
141894
141894
141894
141894
141894
141894
141894
141894
141894
141894
141894
141894
141894
141894
141894
141894
141894
141894
141894
141894
141894
141894
141894
141894
141894
141894
141894
141894
141894
141894
141894
141894
141894
141894
)
;

boundaryField
{
    sides
    {
        type            zeroGradient;
    }
    empty
    {
        type            empty;
    }
}


// ************************************************************************* //
