/*--------------------------------*- C++ -*----------------------------------*\
| =========                 |                                                 |
| \\      /  F ield         | OpenFOAM: The Open Source CFD Toolbox           |
|  \\    /   O peration     | Version:  2312                                  |
|   \\  /    A nd           | Website:  www.openfoam.com                      |
|    \\/     M anipulation  |                                                 |
\*---------------------------------------------------------------------------*/
FoamFile
{
    version     2.0;
    format      ascii;
    arch        "LSB;label=32;scalar=64";
    class       volScalarField;
    location    "9e-05";
    object      rho;
}
// * * * * * * * * * * * * * * * * * * * * * * * * * * * * * * * * * * * * * //

dimensions      [1 -3 0 0 0 0 0];

internalField   nonuniform List<scalar> 
100
(
1.16102
1.16102
1.16102
1.16102
1.16102
1.16102
1.16102
1.16102
1.16102
1.16102
1.16102
1.16102
1.16102
1.16102
1.16104
1.16122
1.16297
1.17815
1.27634
1.62114
2.22306
2.81801
3.16723
3.2383
3.12265
2.90682
2.63814
2.34042
2.03204
1.73045
1.45019
1.20075
0.986243
0.806477
0.658551
0.538281
0.441217
0.363216
0.300653
0.250442
0.210019
0.177319
0.150752
0.129165
0.112848
0.103614
0.10085
0.100723
0.100806
0.100837
0.10083
0.100829
0.100858
0.100917
0.100994
0.101076
0.101152
0.101222
0.101287
0.101354
0.101425
0.101502
0.101586
0.101674
0.101764
0.101854
0.101945
0.102036
0.102128
0.102221
0.102316
0.102412
0.102509
0.102609
0.102711
0.102816
0.102926
0.103041
0.103164
0.103293
0.103432
0.10358
0.103738
0.103909
0.104092
0.104288
0.1045
0.104727
0.104972
0.105235
0.105518
0.105822
0.106149
0.106499
0.106874
0.107276
0.107705
0.108162
0.108637
0.10907
)
;

boundaryField
{
    sides
    {
        type            zeroGradient;
    }
    empty
    {
        type            empty;
    }
}


// ************************************************************************* //
