/*--------------------------------*- C++ -*----------------------------------*\
| =========                 |                                                 |
| \\      /  F ield         | OpenFOAM: The Open Source CFD Toolbox           |
|  \\    /   O peration     | Version:  2312                                  |
|   \\  /    A nd           | Website:  www.openfoam.com                      |
|    \\/     M anipulation  |                                                 |
\*---------------------------------------------------------------------------*/
FoamFile
{
    version     2.0;
    format      ascii;
    arch        "LSB;label=32;scalar=64";
    class       volScalarField;
    location    "9e-05";
    object      T;
}
// * * * * * * * * * * * * * * * * * * * * * * * * * * * * * * * * * * * * * //

dimensions      [0 0 0 1 0 0 0];

internalField   nonuniform List<scalar> 
100
(
34843.2
34843.2
34843.2
34843.2
34843.2
34843.2
34843.2
34843.2
34843.2
34843.2
34843.2
34843.2
34843.2
34843.2
34843.6
34847.5
34889.5
35374.8
40430.8
64731.1
105281
139180
160586
174427
186599
201344
221318
248674
285611
334606
398496
480504
584251
713758
873401
1.0678e+06
1.30175e+06
1.58029e+06
1.90864e+06
2.29187e+06
2.73409e+06
3.23791e+06
3.80492e+06
4.43823e+06
5.17244e+06
5.70006e+06
5.70006e+06
5.70006e+06
5.70006e+06
5.70006e+06
5.70006e+06
5.70006e+06
5.70006e+06
5.70006e+06
5.70006e+06
5.70006e+06
5.70006e+06
5.70006e+06
5.70006e+06
5.70006e+06
5.70006e+06
5.70006e+06
5.70006e+06
5.70006e+06
5.70006e+06
5.70006e+06
5.70006e+06
5.70006e+06
5.70006e+06
5.70006e+06
5.70006e+06
5.70006e+06
5.70006e+06
5.70006e+06
5.70006e+06
5.70006e+06
5.70006e+06
5.70006e+06
5.70006e+06
5.70006e+06
5.70006e+06
5.70006e+06
5.70006e+06
5.70006e+06
5.70006e+06
5.70006e+06
5.70006e+06
5.70006e+06
5.70006e+06
5.70006e+06
5.70006e+06
5.70006e+06
5.70006e+06
5.70006e+06
5.70006e+06
5.70006e+06
5.70006e+06
5.70006e+06
5.70006e+06
5.70006e+06
)
;

boundaryField
{
    sides
    {
        type            zeroGradient;
    }
    empty
    {
        type            empty;
    }
}


// ************************************************************************* //
