/*--------------------------------*- C++ -*----------------------------------*\
| =========                 |                                                 |
| \\      /  F ield         | OpenFOAM: The Open Source CFD Toolbox           |
|  \\    /   O peration     | Version:  2312                                  |
|   \\  /    A nd           | Website:  www.openfoam.com                      |
|    \\/     M anipulation  |                                                 |
\*---------------------------------------------------------------------------*/
FoamFile
{
    version     2.0;
    format      ascii;
    arch        "LSB;label=32;scalar=64";
    class       volScalarField;
    location    "9e-05";
    object      thermo:e;
}
// * * * * * * * * * * * * * * * * * * * * * * * * * * * * * * * * * * * * * //

dimensions      [0 2 -2 0 0 0 0];

internalField   nonuniform List<scalar> 
100
(
5.95678e+07
5.95678e+07
5.95678e+07
5.95678e+07
5.95678e+07
5.95678e+07
5.95678e+07
5.95678e+07
5.95678e+07
5.95678e+07
5.95678e+07
5.95679e+07
5.95679e+07
5.95679e+07
5.95686e+07
5.95752e+07
5.96469e+07
6.04767e+07
6.91203e+07
1.10664e+08
1.79988e+08
2.37941e+08
2.74537e+08
2.98201e+08
3.19009e+08
3.44217e+08
3.78365e+08
4.25132e+08
4.8828e+08
5.72041e+08
6.81267e+08
8.21468e+08
9.98834e+08
1.22024e+09
1.49316e+09
1.82551e+09
2.22547e+09
2.70165e+09
3.263e+09
3.91817e+09
4.6742e+09
5.53552e+09
6.50488e+09
7.58758e+09
8.84279e+09
1.04827e+10
1.2578e+10
1.48793e+10
1.71906e+10
1.94738e+10
2.17093e+10
2.3882e+10
2.59777e+10
2.79843e+10
2.9891e+10
3.1689e+10
3.33712e+10
3.49333e+10
3.6373e+10
3.76904e+10
3.88875e+10
3.99677e+10
4.09357e+10
4.17974e+10
4.2559e+10
4.32277e+10
4.3811e+10
4.43167e+10
4.47522e+10
4.51252e+10
4.54428e+10
4.57116e+10
4.59381e+10
4.61279e+10
4.62863e+10
4.64181e+10
4.65273e+10
4.66178e+10
4.66927e+10
4.67548e+10
4.68065e+10
4.68499e+10
4.68867e+10
4.69182e+10
4.69458e+10
4.69704e+10
4.69929e+10
4.7014e+10
4.70342e+10
4.70542e+10
4.70741e+10
4.70945e+10
4.71156e+10
4.71377e+10
4.71608e+10
4.71853e+10
4.72113e+10
4.72387e+10
4.72671e+10
4.72929e+10
)
;

boundaryField
{
    sides
    {
        type            zeroGradient;
    }
    empty
    {
        type            empty;
    }
}


// ************************************************************************* //
