/*--------------------------------*- C++ -*----------------------------------*\
| =========                 |                                                 |
| \\      /  F ield         | OpenFOAM: The Open Source CFD Toolbox           |
|  \\    /   O peration     | Version:  2312                                  |
|   \\  /    A nd           | Website:  www.openfoam.com                      |
|    \\/     M anipulation  |                                                 |
\*---------------------------------------------------------------------------*/
FoamFile
{
    version     2.0;
    format      ascii;
    arch        "LSB;label=32;scalar=64";
    class       volScalarField;
    location    "9e-05";
    object      thermo:e;
}
// * * * * * * * * * * * * * * * * * * * * * * * * * * * * * * * * * * * * * //

dimensions      [0 2 -2 0 0 0 0];

internalField   nonuniform List<scalar> 
100
(
3.76955e+16
3.76955e+16
3.76955e+16
3.76955e+16
3.76955e+16
3.76955e+16
3.76955e+16
3.76955e+16
3.76955e+16
3.76955e+16
3.76955e+16
3.76955e+16
3.76955e+16
3.76955e+16
3.76955e+16
3.76955e+16
3.76955e+16
3.76955e+16
3.76955e+16
3.76955e+16
3.76955e+16
3.76955e+16
3.76955e+16
3.76955e+16
3.76955e+16
3.76955e+16
3.76955e+16
3.76955e+16
3.76955e+16
3.76955e+16
3.76955e+16
3.76955e+16
3.76955e+16
3.76955e+16
3.76955e+16
3.76955e+16
3.76955e+16
3.76955e+16
3.76955e+16
3.76955e+16
3.76955e+16
3.76955e+16
3.76955e+16
3.76991e+16
5.17347e+16
2.05908e+19
9.20361e+21
1.32995e+24
7.52612e+25
2.87842e+27
1.63066e+29
3.00347e+29
3.21342e+29
3.22261e+29
3.22284e+29
3.22284e+29
3.22284e+29
3.22284e+29
3.22284e+29
3.22284e+29
3.22284e+29
3.22284e+29
3.22284e+29
3.22284e+29
3.22284e+29
3.22284e+29
3.22284e+29
3.22284e+29
3.22284e+29
3.22284e+29
3.22284e+29
3.22284e+29
3.22284e+29
3.22284e+29
3.22284e+29
3.22284e+29
3.22284e+29
3.22284e+29
3.22284e+29
3.22284e+29
3.22284e+29
3.22284e+29
3.22284e+29
3.22284e+29
3.22284e+29
3.22284e+29
3.22284e+29
3.22284e+29
3.22284e+29
3.22284e+29
3.22284e+29
3.22284e+29
3.22284e+29
3.22284e+29
3.22284e+29
3.22284e+29
3.22284e+29
3.22284e+29
3.22284e+29
3.22284e+29
)
;

boundaryField
{
    sides
    {
        type            zeroGradient;
    }
    empty
    {
        type            empty;
    }
}


// ************************************************************************* //
