/*--------------------------------*- C++ -*----------------------------------*\
| =========                 |                                                 |
| \\      /  F ield         | OpenFOAM: The Open Source CFD Toolbox           |
|  \\    /   O peration     | Version:  2312                                  |
|   \\  /    A nd           | Website:  www.openfoam.com                      |
|    \\/     M anipulation  |                                                 |
\*---------------------------------------------------------------------------*/
FoamFile
{
    version     2.0;
    format      ascii;
    arch        "LSB;label=32;scalar=64";
    class       volVectorField;
    location    "9e-05";
    object      U;
}
// * * * * * * * * * * * * * * * * * * * * * * * * * * * * * * * * * * * * * //

dimensions      [0 1 -1 0 0 0 0];

internalField   nonuniform List<vector> 
100
(
(2.79257e-16 0 0)
(3.94026e-16 0 0)
(2.22633e-16 0 0)
(-2.94074e-16 0 0)
(-6.01842e-16 0 0)
(2.79257e-16 0 0)
(3.94026e-16 0 0)
(3.01108e-16 0 0)
(-4.725e-16 0 0)
(-1.87115e-16 0 0)
(6.67569e-16 0 0)
(-1.10169e-16 0 0)
(0 0 0)
(3.45567e-16 0 0)
(-2.35398e-16 0 0)
(-1.17312e-16 0 0)
(7.14308e-18 0 0)
(0 0 0)
(3.45567e-16 0 0)
(-2.35398e-16 0 0)
(0 0 0)
(-1.10169e-16 0 0)
(0 0 0)
(3.45567e-16 0 0)
(-3.5271e-16 0 0)
(-1.55344e-16 0 0)
(-3.86975e-16 0 0)
(3.45081e-16 0 0)
(5.49949e-16 0 0)
(5.30473e-17 0 0)
(-2.03887e-16 0 0)
(0 0 0)
(0 0 0)
(6.44762e-17 0 0)
(1.82484e-16 0 0)
(-2.4696e-16 0 0)
(0 0 0)
(0 0 0)
(6.44762e-17 0 0)
(-2.53111e-16 0 0)
(-4.07707e-13 0 0)
(-8.49266e-10 0 0)
(-1.48585e-06 0 0)
(-0.0028569 0 0)
(-0.374032 0 0)
(-3.02146 0 0)
(-12.5372 0 0)
(-37.6787 0 0)
(-63.8923 0 0)
(-17.7741 0 0)
(111.659 0 0)
(40.0649 0 0)
(4.25147 0 0)
(0.296576 0 0)
(0.015259 0 0)
(0.000623213 0 0)
(2.05888e-05 0 0)
(5.61358e-07 0 0)
(1.27868e-08 0 0)
(2.45574e-10 0 0)
(4.1838e-12 0 0)
(4.51158e-13 0 0)
(0 0 0)
(0 0 0)
(-3.1742e-13 0 0)
(-2.47508e-13 0 0)
(5.64928e-13 0 0)
(0 0 0)
(0 0 0)
(-3.01481e-13 0 0)
(-4.76225e-13 0 0)
(6.19516e-13 0 0)
(3.44379e-13 0 0)
(2.51834e-14 0 0)
(-2.08991e-13 0 0)
(-7.67553e-13 0 0)
(4.22865e-13 0 0)
(0 0 0)
(5.42843e-13 0 0)
(-1.98155e-13 0 0)
(-7.55019e-13 0 0)
(5.37704e-13 0 0)
(-1.27372e-13 0 0)
(5.42843e-13 0 0)
(-1.98155e-13 0 0)
(-7.55019e-13 0 0)
(5.37704e-13 0 0)
(-1.15061e-13 0 0)
(5.30532e-13 0 0)
(5.48412e-13 0 0)
(-8.26445e-13 0 0)
(-7.26706e-13 0 0)
(7.26494e-13 0 0)
(8.28203e-13 0 0)
(-9.66425e-14 0 0)
(-8.71232e-13 0 0)
(-6.00583e-13 0 0)
(7.40254e-13 0 0)
(8.28203e-13 0 0)
(-8.41088e-14 0 0)
)
;

boundaryField
{
    sides
    {
        type            zeroGradient;
    }
    empty
    {
        type            empty;
    }
}


// ************************************************************************* //
