/*--------------------------------*- C++ -*----------------------------------*\
| =========                 |                                                 |
| \\      /  F ield         | OpenFOAM: The Open Source CFD Toolbox           |
|  \\    /   O peration     | Version:  2312                                  |
|   \\  /    A nd           | Website:  www.openfoam.com                      |
|    \\/     M anipulation  |                                                 |
\*---------------------------------------------------------------------------*/
FoamFile
{
    version     2.0;
    format      ascii;
    arch        "LSB;label=32;scalar=64";
    class       volVectorField;
    location    "9e-05";
    object      U;
}
// * * * * * * * * * * * * * * * * * * * * * * * * * * * * * * * * * * * * * //

dimensions      [0 1 -1 0 0 0 0];

internalField   nonuniform List<vector> 
100
(
(2.26639e-11 0 0)
(1.78739e-11 0 0)
(7.80673e-12 0 0)
(-9.76909e-13 0 0)
(-1.07403e-11 0 0)
(-9.35135e-11 0 0)
(-1.03066e-09 0 0)
(-1.1025e-08 0 0)
(-1.16225e-07 0 0)
(-1.21727e-06 0 0)
(-1.26805e-05 0 0)
(-0.000131431 0 0)
(-0.00135587 0 0)
(-0.0139262 0 0)
(-0.142445 0 0)
(-1.45095 0 0)
(-14.6726 0 0)
(-142.486 0 0)
(-1093.13 0 0)
(-4555.16 0 0)
(-9869.08 0 0)
(-14423.8 0 0)
(-17264.8 0 0)
(-18655.8 0 0)
(-19168.6 0 0)
(-19289.2 0 0)
(-19283.6 0 0)
(-19252.4 0 0)
(-19220.7 0 0)
(-19191.6 0 0)
(-19164.3 0 0)
(-19138.3 0 0)
(-19113.3 0 0)
(-19090 0 0)
(-19068.2 0 0)
(-19045.4 0 0)
(-19018.5 0 0)
(-18989.8 0 0)
(-18969.6 0 0)
(-18966.4 0 0)
(-18971.9 0 0)
(-18958 0 0)
(-18900.6 0 0)
(-18782.8 0 0)
(-17680.1 0 0)
(-14394.3 0 0)
(-11802 0 0)
(-11386.6 0 0)
(-11261.8 0 0)
(-11231.3 0 0)
(-11239.7 0 0)
(-11245.8 0 0)
(-11228.9 0 0)
(-11188.8 0 0)
(-11135.3 0 0)
(-11079.7 0 0)
(-11029.5 0 0)
(-10986.9 0 0)
(-10949.7 0 0)
(-10913.9 0 0)
(-10876.1 0 0)
(-10834.5 0 0)
(-10789.1 0 0)
(-10740.8 0 0)
(-10690.5 0 0)
(-10638.4 0 0)
(-10584 0 0)
(-10526.3 0 0)
(-10464.3 0 0)
(-10397 0 0)
(-10324.1 0 0)
(-10245.5 0 0)
(-10161.1 0 0)
(-10071.1 0 0)
(-9975.66 0 0)
(-9874.85 0 0)
(-9768.7 0 0)
(-9657.19 0 0)
(-9540.3 0 0)
(-9417.96 0 0)
(-9290.05 0 0)
(-9156.32 0 0)
(-9016.4 0 0)
(-8869.8 0 0)
(-8715.86 0 0)
(-8553.81 0 0)
(-8382.8 0 0)
(-8201.88 0 0)
(-8010.03 0 0)
(-7806.22 0 0)
(-7589.37 0 0)
(-7358.37 0 0)
(-7112.15 0 0)
(-6849.62 0 0)
(-6569.76 0 0)
(-6271.66 0 0)
(-5954.6 0 0)
(-5618.92 0 0)
(-5271.04 0 0)
(-4955.17 0 0)
)
;

boundaryField
{
    sides
    {
        type            zeroGradient;
    }
    empty
    {
        type            empty;
    }
}


// ************************************************************************* //
