/*--------------------------------*- C++ -*----------------------------------*\
| =========                 |                                                 |
| \\      /  F ield         | OpenFOAM: The Open Source CFD Toolbox           |
|  \\    /   O peration     | Version:  2312                                  |
|   \\  /    A nd           | Website:  www.openfoam.com                      |
|    \\/     M anipulation  |                                                 |
\*---------------------------------------------------------------------------*/
FoamFile
{
    version     2.0;
    format      ascii;
    arch        "LSB;label=32;scalar=64";
    class       volScalarField;
    location    "0.024";
    object      p;
}
// * * * * * * * * * * * * * * * * * * * * * * * * * * * * * * * * * * * * * //

dimensions      [1 -1 -2 0 0 0 0];

internalField   nonuniform List<scalar> 
100
(
58094.3
57561.7
56808.7
56119
55414.6
54718
54023.4
53333.4
52646.4
51966.8
51285.1
50623.2
49935.7
49313.3
48588.5
48052.5
47234.8
46843.1
45893
45647.7
44620.2
44410
43452.8
43134.2
42347.9
41887.7
41243.7
40708.6
40133.5
39585.1
39037.8
38500.1
37970
37447.9
36934.1
36428.7
35931.9
35444
34965.2
34496
34036.6
33587.7
33149.9
32723.8
32310.4
31910.8
31526.2
31158.1
30808.1
30478.3
30170.5
29887
29629.9
29400.8
29201.7
29032.1
28894
28781.2
28700.9
28631.3
28602.8
28550.7
28573.8
28502.2
28591
28458.2
28636.9
28410.7
28687.4
28375.4
28714.3
28376.5
28696.5
28417.1
28642.8
28482.6
28580.3
28553.6
28509.6
28641.4
28419.5
28808.4
28303.6
29120.4
28183.3
29632
28179.3
30341.2
28458.4
31096.1
29154.4
31891.5
30741.1
33544.1
34057.9
36514.1
37865.5
38840.8
39444.7
39803.3
)
;

boundaryField
{
    sides
    {
        type            zeroGradient;
    }
    empty
    {
        type            empty;
    }
}


// ************************************************************************* //
