/*--------------------------------*- C++ -*----------------------------------*\
| =========                 |                                                 |
| \\      /  F ield         | OpenFOAM: The Open Source CFD Toolbox           |
|  \\    /   O peration     | Version:  2312                                  |
|   \\  /    A nd           | Website:  www.openfoam.com                      |
|    \\/     M anipulation  |                                                 |
\*---------------------------------------------------------------------------*/
FoamFile
{
    version     2.0;
    format      ascii;
    arch        "LSB;label=32;scalar=64";
    class       volScalarField;
    location    "0.024";
    object      rho;
}
// * * * * * * * * * * * * * * * * * * * * * * * * * * * * * * * * * * * * * //

dimensions      [1 -3 0 0 0 0 0];

internalField   nonuniform List<scalar> 
100
(
0.756892
0.753352
0.749204
0.745392
0.741582
0.737737
0.733712
0.729401
0.724732
0.71968
0.71426
0.708515
0.702523
0.696304
0.69002
0.683521
0.677199
0.670541
0.664296
0.657647
0.65137
0.644991
0.638524
0.632487
0.625969
0.620034
0.613723
0.607754
0.601676
0.595736
0.589823
0.583982
0.578201
0.572487
0.566842
0.561268
0.555767
0.550344
0.545003
0.53975
0.534589
0.529528
0.524573
0.519737
0.51503
0.510466
0.506062
0.501836
0.497808
0.494005
0.490452
0.487177
0.484205
0.481559
0.479254
0.477302
0.475693
0.474427
0.473446
0.47276
0.472225
0.471953
0.471649
0.47167
0.471418
0.471624
0.471319
0.471612
0.471321
0.471524
0.471373
0.471325
0.471482
0.47122
0.471547
0.471071
0.471342
0.470917
0.471411
0.471074
0.471776
0.471
0.472221
0.471505
0.474365
0.474458
0.478517
0.479243
0.483286
0.486045
0.490984
0.498865
0.507657
0.523442
0.538702
0.55927
0.573984
0.587862
0.5945
0.59378
)
;

boundaryField
{
    sides
    {
        type            zeroGradient;
    }
    empty
    {
        type            empty;
    }
}


// ************************************************************************* //
