/*--------------------------------*- C++ -*----------------------------------*\
| =========                 |                                                 |
| \\      /  F ield         | OpenFOAM: The Open Source CFD Toolbox           |
|  \\    /   O peration     | Version:  2312                                  |
|   \\  /    A nd           | Website:  www.openfoam.com                      |
|    \\/     M anipulation  |                                                 |
\*---------------------------------------------------------------------------*/
FoamFile
{
    version     2.0;
    format      ascii;
    arch        "LSB;label=32;scalar=64";
    class       volScalarField;
    location    "0.024";
    object      thermo:e;
}
// * * * * * * * * * * * * * * * * * * * * * * * * * * * * * * * * * * * * * //

dimensions      [0 2 -2 0 0 0 0];

internalField   nonuniform List<scalar> 
100
(
191872
191007
189552
188208
186800
185414
184064
182787
181595
180509
179493
178613
177690
177043
176029
175743
174365
174636
172702
173516
171244
172123
170119
170484
169119
168882
167996
167445
166747
166108
165454
164807
164163
163522
162884
162251
161622
160998
160380
159768
159162
158564
157975
157396
156828
156273
155733
155211
154709
154231
153780
153359
152973
152624
152319
152054
151843
151653
151544
151395
151416
151228
151447
151061
151613
150843
151888
150595
152156
150436
152281
150505
152152
150754
151846
151149
151580
151576
151183
151991
150589
152901
149834
154392
148522
156126
147213
158267
147204
159935
148440
159810
151378
160199
158046
163212
164914
165168
165863
167574
)
;

boundaryField
{
    sides
    {
        type            zeroGradient;
    }
    empty
    {
        type            empty;
    }
}


// ************************************************************************* //
