/*--------------------------------*- C++ -*----------------------------------*\
| =========                 |                                                 |
| \\      /  F ield         | OpenFOAM: The Open Source CFD Toolbox           |
|  \\    /   O peration     | Version:  2312                                  |
|   \\  /    A nd           | Website:  www.openfoam.com                      |
|    \\/     M anipulation  |                                                 |
\*---------------------------------------------------------------------------*/
FoamFile
{
    version     2.0;
    format      ascii;
    arch        "LSB;label=32;scalar=64";
    class       volVectorField;
    location    "0.024";
    object      U;
}
// * * * * * * * * * * * * * * * * * * * * * * * * * * * * * * * * * * * * * //

dimensions      [0 1 -1 0 0 0 0];

internalField   nonuniform List<vector> 
100
(
(100.586 0 0)
(103.764 0 0)
(107.39 0 0)
(110.896 0 0)
(114.426 0 0)
(117.931 0 0)
(121.425 0 0)
(124.91 0 0)
(128.39 0 0)
(131.878 0 0)
(135.365 0 0)
(138.886 0 0)
(142.374 0 0)
(145.956 0 0)
(149.41 0 0)
(153.081 0 0)
(156.474 0 0)
(160.212 0 0)
(163.603 0 0)
(167.28 0 0)
(170.82 0 0)
(174.3 0 0)
(178.035 0 0)
(181.382 0 0)
(185.151 0 0)
(188.547 0 0)
(192.215 0 0)
(195.708 0 0)
(199.291 0 0)
(202.827 0 0)
(206.374 0 0)
(209.911 0 0)
(213.441 0 0)
(216.963 0 0)
(220.473 0 0)
(223.97 0 0)
(227.451 0 0)
(230.913 0 0)
(234.351 0 0)
(237.762 0 0)
(241.14 0 0)
(244.477 0 0)
(247.769 0 0)
(251.004 0 0)
(254.175 0 0)
(257.268 0 0)
(260.271 0 0)
(263.169 0 0)
(265.946 0 0)
(268.582 0 0)
(271.059 0 0)
(273.355 0 0)
(275.452 0 0)
(277.333 0 0)
(278.987 0 0)
(280.404 0 0)
(281.592 0 0)
(282.551 0 0)
(283.32 0 0)
(283.883 0 0)
(284.344 0 0)
(284.611 0 0)
(284.906 0 0)
(284.963 0 0)
(285.203 0 0)
(285.117 0 0)
(285.354 0 0)
(285.21 0 0)
(285.398 0 0)
(285.304 0 0)
(285.362 0 0)
(285.426 0 0)
(285.315 0 0)
(285.502 0 0)
(285.265 0 0)
(285.503 0 0)
(285.274 0 0)
(285.544 0 0)
(285.25 0 0)
(285.517 0 0)
(284.948 0 0)
(285.339 0 0)
(284.347 0 0)
(284.828 0 0)
(283.055 0 0)
(283.088 0 0)
(280.47 0 0)
(279.652 0 0)
(276.963 0 0)
(274.961 0 0)
(272.3 0 0)
(267.414 0 0)
(262.217 0 0)
(252.013 0 0)
(242.982 0 0)
(231.292 0 0)
(224.319 0 0)
(218.63 0 0)
(215.117 0 0)
(214.104 0 0)
)
;

boundaryField
{
    sides
    {
        type            mywaveTransmissive;
        gamma           1.4;
        value           nonuniform List<vector> 2((214.18 0 0) (99.2947 0 0));
    }
    empty
    {
        type            empty;
    }
}


// ************************************************************************* //
