/*--------------------------------*- C++ -*----------------------------------*\
| =========                 |                                                 |
| \\      /  F ield         | OpenFOAM: The Open Source CFD Toolbox           |
|  \\    /   O peration     | Version:  2312                                  |
|   \\  /    A nd           | Website:  www.openfoam.com                      |
|    \\/     M anipulation  |                                                 |
\*---------------------------------------------------------------------------*/
FoamFile
{
    version     2.0;
    format      ascii;
    arch        "LSB;label=32;scalar=64";
    class       volScalarField;
    location    "0.00023";
    object      p;
}
// * * * * * * * * * * * * * * * * * * * * * * * * * * * * * * * * * * * * * //

dimensions      [1 -1 -2 0 0 0 0];

internalField   nonuniform List<scalar> 
500
(
160008
160030
160044
160054
160061
160066
160071
160075
160079
160082
160085
160088
160091
160093
160095
160098
160100
160102
160104
160106
160108
160110
160111
160113
160115
160117
160119
160120
160122
160124
160125
160127
160129
160131
160132
160134
160136
160138
160139
160141
160143
160145
160147
160148
160150
160152
160154
160156
160158
160160
160162
160164
160166
160169
160171
160173
160175
160178
160180
160182
160185
160187
160190
160192
160195
160197
160200
160203
160206
160208
160211
160214
160217
160221
160224
160227
160230
160234
160237
160240
160244
160248
160251
160255
160259
160263
160267
160271
160276
160280
160285
160289
160294
160299
160303
160308
160314
160319
160324
160330
160335
160341
160347
160353
160359
160366
160372
160379
160386
160393
160400
160407
160415
160423
160430
160439
160447
160456
160464
160473
160483
160492
160502
160512
160522
160533
160544
160555
160567
160578
160591
160603
160616
160629
160643
160656
160671
160686
160701
160716
160732
160749
160766
160783
160801
160820
160839
160858
160878
160899
160921
160943
160965
160989
161013
161037
161063
161089
161116
161144
161173
161203
161233
161265
161297
161331
161365
161401
161438
161476
161515
161555
161597
161640
161684
161730
161777
161826
161876
161928
161982
162037
162094
162153
162214
162276
162341
162408
162477
162549
162622
162698
162777
162858
162942
163029
163118
163210
163306
163404
163506
163611
163720
163832
163948
164068
164192
164319
164451
164588
164728
164874
165024
165180
165340
165506
165677
165853
166036
166224
166419
166620
166828
167042
167264
167493
167729
167973
168224
168484
168753
169030
169316
169611
169916
170230
170555
170890
171236
171593
171961
172340
172732
173136
173553
173984
174427
174885
175356
175843
176344
176862
177395
177944
178511
179094
179696
180316
180955
181613
182291
182989
183709
184450
185213
185999
186808
187641
188498
189381
190289
191224
192186
193176
194194
195242
196320
197428
198568
199741
200946
202185
203459
204768
206114
207497
208918
210378
211878
213419
215001
216626
218295
220009
221768
223573
225426
227328
229280
231282
233336
235442
237603
239819
242091
244420
246807
249255
251762
254332
256965
259661
262423
265252
268148
271114
274149
277256
280435
283688
287016
290421
293902
297463
301103
304825
308629
312517
316490
320548
324695
328930
333255
337671
342179
346780
351473
356261
361144
366121
371193
376356
381608
386941
392344
397798
403274
408721
414060
419160
423812
427674
430197
430499
427208
418257
400766
371315
327268
269794
207326
154296
121396
106860
101961
100534
100142
100036
100008
100000
99998.3
99997.8
99997.6
99997.6
99997.6
99997.6
99997.6
99997.6
99997.6
99997.6
99997.6
99997.6
99997.6
99997.6
99997.6
99997.6
99997.6
99997.6
99997.6
99997.6
99997.6
99997.6
99997.6
99997.6
99997.6
99997.6
99997.6
99997.6
99997.6
99997.6
99997.6
99997.6
99997.6
99997.6
99997.6
99997.6
99997.6
99997.6
99997.6
99997.6
99997.6
99997.6
99997.6
99997.6
99997.6
99997.6
99997.6
99997.6
99997.6
99997.6
99997.6
99997.6
99997.6
99997.6
99997.6
99997.6
99997.6
99997.6
99997.6
99997.6
99997.6
99997.6
99997.6
99997.6
99997.6
99997.6
99997.6
99997.6
99997.6
99997.6
99997.6
99997.6
99997.6
99997.6
99997.6
99997.6
99997.6
99997.6
99997.6
99997.6
99997.6
99997.6
99997.6
99997.6
99997.6
99997.6
99997.6
99997.6
99997.6
99997.6
99997.6
99997.6
99997.6
99997.6
99997.6
99997.6
99997.6
99997.6
99997.6
99997.6
99997.6
99997.6
99997.6
99997.6
99997.6
99997.6
99997.6
99997.6
99997.6
99997.6
99997.6
99997.6
99997.6
99997.6
99997.6
99997.6
99997.6
99997.6
99997.6
99997.6
99997.6
99997.6
99997.6
99997.6
99997.6
99997.6
99997.6
99997.6
99997.6
99997.6
)
;

boundaryField
{
    wedge0
    {
        type            wedge;
    }
    wedge1
    {
        type            wedge;
    }
    wedge2
    {
        type            wedge;
    }
    wedge3
    {
        type            wedge;
    }
    outlet
    {
        type            zeroGradient;
    }
    defaultFaces
    {
        type            empty;
    }
}


// ************************************************************************* //
