/*--------------------------------*- C++ -*----------------------------------*\
| =========                 |                                                 |
| \\      /  F ield         | OpenFOAM: The Open Source CFD Toolbox           |
|  \\    /   O peration     | Version:  2312                                  |
|   \\  /    A nd           | Website:  www.openfoam.com                      |
|    \\/     M anipulation  |                                                 |
\*---------------------------------------------------------------------------*/
FoamFile
{
    version     2.0;
    format      ascii;
    arch        "LSB;label=32;scalar=64";
    class       volScalarField;
    location    "0.00023";
    object      rho;
}
// * * * * * * * * * * * * * * * * * * * * * * * * * * * * * * * * * * * * * //

dimensions      [1 -3 0 0 0 0 0];

internalField   nonuniform List<scalar> 
500
(
0.00428047
0.00428165
0.00428342
0.00428587
0.00428903
0.00429293
0.00429757
0.00430296
0.0043091
0.00431601
0.00432369
0.00433214
0.00434137
0.00435138
0.00436217
0.00437376
0.00438615
0.00439934
0.00441335
0.00442818
0.00444384
0.00446033
0.00447766
0.00449585
0.0045149
0.00453483
0.00455563
0.00457733
0.00459994
0.00462346
0.00464791
0.0046733
0.00469965
0.00472696
0.00475526
0.00478456
0.00481486
0.0048462
0.00487859
0.00491204
0.00494657
0.0049822
0.00501895
0.00505684
0.00509589
0.00513612
0.00517756
0.00522022
0.00526413
0.00530932
0.0053558
0.00540362
0.00545278
0.00550333
0.00555529
0.00560868
0.00566355
0.00571992
0.00577782
0.00583729
0.00589837
0.00596108
0.00602547
0.00609157
0.00615943
0.00622908
0.00630056
0.00637393
0.00644922
0.00652649
0.00660577
0.00668711
0.00677058
0.00685622
0.00694408
0.00703421
0.00712669
0.00722156
0.00731889
0.00741874
0.00752117
0.00762626
0.00773407
0.00784466
0.00795812
0.00807453
0.00819395
0.00831647
0.00844218
0.00857115
0.00870348
0.00883926
0.00897858
0.00912154
0.00926823
0.00941878
0.00957327
0.00973182
0.00989455
0.0100616
0.010233
0.010409
0.0105896
0.010775
0.0109654
0.0111608
0.0113615
0.0115675
0.0117791
0.0119963
0.0122194
0.0124486
0.0126839
0.0129256
0.0131739
0.013429
0.013691
0.0139602
0.0142368
0.014521
0.014813
0.0151131
0.0154215
0.0157384
0.0160642
0.0163991
0.0167433
0.0170971
0.0174609
0.017835
0.0182195
0.018615
0.0190216
0.0194398
0.0198699
0.0203122
0.0207672
0.0212352
0.0217166
0.0222119
0.0227214
0.0232456
0.0237849
0.0243399
0.024911
0.0254987
0.0261034
0.0267258
0.0273664
0.0280258
0.0287044
0.029403
0.0301221
0.0308623
0.0316244
0.0324089
0.0332167
0.0340483
0.0349045
0.0357861
0.0366938
0.0376285
0.038591
0.039582
0.0406026
0.0416536
0.0427358
0.0438503
0.044998
0.04618
0.0473972
0.0486507
0.0499417
0.0512711
0.0526402
0.0540501
0.0555021
0.0569973
0.0585371
0.0601227
0.0617555
0.0634368
0.0651681
0.0669508
0.0687863
0.0706762
0.072622
0.0746252
0.0766876
0.0788106
0.0809961
0.0832458
0.0855613
0.0879446
0.0903973
0.0929215
0.0955191
0.0981919
0.100942
0.103771
0.106682
0.109676
0.112756
0.115923
0.119181
0.122531
0.125975
0.129516
0.133156
0.136898
0.140744
0.144697
0.148758
0.152931
0.157218
0.161622
0.166146
0.170791
0.175561
0.180458
0.185486
0.190646
0.195943
0.201377
0.206954
0.212674
0.218542
0.22456
0.230731
0.237057
0.243543
0.250191
0.257003
0.263983
0.271135
0.27846
0.285961
0.293643
0.301508
0.309558
0.317798
0.326229
0.334856
0.34368
0.352705
0.361934
0.37137
0.381016
0.390874
0.400948
0.411241
0.421755
0.432493
0.443459
0.454654
0.466082
0.477745
0.489647
0.501789
0.514175
0.526807
0.539687
0.552818
0.566204
0.579845
0.593745
0.607905
0.62233
0.637019
0.651977
0.667204
0.682704
0.698478
0.714528
0.730857
0.747466
0.764357
0.781533
0.798995
0.816745
0.834784
0.853115
0.871739
0.890657
0.909871
0.929383
0.949195
0.969306
0.98972
1.01044
1.03146
1.05278
1.07442
1.09636
1.11861
1.14117
1.16404
1.18723
1.21072
1.23453
1.25866
1.2831
1.30785
1.33292
1.35831
1.38402
1.41004
1.43639
1.46305
1.49003
1.51734
1.54496
1.57291
1.60117
1.62976
1.65867
1.68791
1.71746
1.74734
1.77755
1.80808
1.83893
1.87011
1.90162
1.93346
1.96562
1.99811
2.03093
2.06408
2.09756
2.13138
2.16553
2.20001
2.23483
2.26999
2.30548
2.3413
2.37745
2.41394
2.45075
2.48789
2.52533
2.56305
2.60103
2.63918
2.67743
2.71561
2.75347
2.79063
2.82644
2.85987
2.88926
2.9119
2.92348
2.91723
2.8829
2.80594
2.66833
2.45402
2.16275
1.82889
1.52384
1.31582
1.21405
1.1768
1.1654
1.16219
1.16132
1.16108
1.16102
1.16101
1.161
1.161
1.161
1.161
1.161
1.161
1.161
1.161
1.161
1.161
1.161
1.161
1.161
1.161
1.161
1.161
1.161
1.161
1.161
1.161
1.161
1.161
1.161
1.161
1.161
1.161
1.161
1.161
1.161
1.161
1.161
1.161
1.161
1.161
1.161
1.161
1.161
1.161
1.161
1.161
1.161
1.161
1.161
1.161
1.161
1.161
1.161
1.161
1.161
1.161
1.161
1.161
1.161
1.161
1.161
1.161
1.161
1.161
1.161
1.161
1.161
1.161
1.161
1.161
1.161
1.161
1.161
1.161
1.161
1.161
1.161
1.161
1.161
1.161
1.161
1.161
1.161
1.161
1.161
1.161
1.161
1.161
1.161
1.161
1.161
1.161
1.161
1.161
1.161
1.161
1.161
1.161
1.161
1.161
1.161
1.161
1.161
1.161
1.161
1.161
1.161
1.161
1.161
1.161
1.161
1.161
1.161
1.161
1.161
1.161
1.161
1.161
1.161
1.161
1.161
1.161
1.161
1.161
1.161
1.161
1.161
1.161
1.161
1.161
1.161
1.161
1.161
1.161
1.161
)
;

boundaryField
{
    wedge0
    {
        type            wedge;
    }
    wedge1
    {
        type            wedge;
    }
    wedge2
    {
        type            wedge;
    }
    wedge3
    {
        type            wedge;
    }
    outlet
    {
        type            zeroGradient;
    }
    defaultFaces
    {
        type            empty;
    }
}


// ************************************************************************* //
