/*--------------------------------*- C++ -*----------------------------------*\
| =========                 |                                                 |
| \\      /  F ield         | OpenFOAM: The Open Source CFD Toolbox           |
|  \\    /   O peration     | Version:  2312                                  |
|   \\  /    A nd           | Website:  www.openfoam.com                      |
|    \\/     M anipulation  |                                                 |
\*---------------------------------------------------------------------------*/
FoamFile
{
    version     2.0;
    format      ascii;
    arch        "LSB;label=32;scalar=64";
    class       volScalarField;
    location    "0.00023";
    object      T;
}
// * * * * * * * * * * * * * * * * * * * * * * * * * * * * * * * * * * * * * //

dimensions      [0 0 0 1 0 0 0];

internalField   nonuniform List<scalar> 
500
(
130201
130183
130141
130074
129984
129870
129734
129575
129393
129189
128962
128712
128441
128147
127832
127495
127137
126757
126356
125935
125493
125030
124547
124045
123523
122982
122421
121842
121245
120629
119996
119345
118677
117993
117292
116575
115843
115095
114332
113555
112763
111958
111140
110308
109464
108608
107740
106861
105971
105070
104160
103239
102310
101371
100425
99470
98507.8
97538.4
96562.3
95580
94591.7
93598
92599.3
91595.9
90588.3
89576.8
88562
87544.1
86523.6
85500.8
84476.2
83450.1
82422.9
81395
80366.7
79338.5
78310.6
77283.4
76257.3
75232.6
74209.6
73188.7
72170.2
71154.4
70141.7
69132.2
68126.4
67124.5
66126.8
65133.5
64145
63161.5
62183.2
61210.5
60243.4
59282.4
58327.6
57379.2
56437.4
55502.5
54574.6
53654
52740.7
51835.1
50937.2
50047.2
49165.3
48291.6
47426.2
46569.4
45721.1
44881.7
44051
43229.3
42416.7
41613.1
40818.9
40033.9
39258.3
38492.1
37735.5
36988.4
36250.9
35523.1
34804.9
34096.5
33397.8
32708.8
32029.6
31360.2
30700.6
30050.7
29410.7
28780.3
28159.8
27548.9
26947.8
26356.3
25774.5
25202.2
24639.5
24086.4
23542.7
23008.4
22483.4
21967.8
21461.3
20964.1
20475.9
19996.8
19526.6
19065.3
18612.8
18169
17733.8
17307.2
16889
16479.2
16077.6
15684.3
15299
14921.7
14552.4
14190.8
13836.9
13490.5
13151.7
12820.3
12496.1
12179.2
11869.3
11566.3
11270.3
10980.9
10698.3
10422.2
10152.5
9889.12
9631.98
9380.96
9135.95
8896.85
8663.54
8435.92
8213.89
7997.35
7786.18
7580.29
7379.58
7183.93
6993.26
6807.46
6626.43
6450.07
6278.29
6110.99
5948.07
5789.44
5635
5484.67
5338.35
5195.95
5057.39
4922.57
4791.42
4663.83
4539.74
4419.05
4301.69
4187.58
4076.64
3968.78
3863.94
3762.04
3663.01
3566.77
3473.25
3382.39
3294.11
3208.35
3125.05
3044.13
2965.54
2889.21
2815.09
2743.12
2673.23
2605.37
2539.5
2475.54
2413.45
2353.18
2294.68
2237.9
2182.79
2129.31
2077.4
2027.03
1978.15
1930.72
1884.7
1840.04
1796.72
1754.68
1713.9
1674.34
1635.95
1598.72
1562.6
1527.57
1493.58
1460.62
1428.65
1397.64
1367.56
1338.39
1310.1
1282.67
1256.07
1230.27
1205.25
1181
1157.48
1134.67
1112.56
1091.12
1070.34
1050.2
1030.67
1011.74
993.389
975.605
958.371
941.668
925.483
909.801
894.606
879.885
865.625
851.812
838.434
825.478
812.932
800.786
789.027
777.644
766.628
755.968
745.655
735.678
726.028
716.698
707.677
698.957
690.531
682.39
674.528
666.935
659.606
652.534
645.711
639.131
632.787
626.675
620.787
615.118
609.663
604.415
599.37
594.523
589.868
585.401
581.117
577.012
573.08
569.318
565.721
562.286
559.008
555.884
552.909
550.079
547.393
544.845
542.432
540.151
537.999
535.973
534.068
532.283
530.614
529.058
527.613
526.275
525.042
523.91
522.877
521.94
521.096
520.343
519.676
519.093
518.589
518.16
517.799
517.499
517.246
517.023
516.802
516.54
516.167
515.573
514.581
512.904
510.073
505.333
497.481
484.693
464.503
434.5
394.847
352.677
321.345
306.579
301.785
300.472
300.125
300.033
300.009
300.002
300.001
300
300
300
300
300
300
300
300
300
300
300
300
300
300
300
300
300
300
300
300
300
300
300
300
300
300
300
300
300
300
300
300
300
300
300
300
300
300
300
300
300
300
300
300
300
300
300
300
300
300
300
300
300
300
300
300
300
300
300
300
300
300
300
300
300
300
300
300
300
300
300
300
300
300
300
300
300
300
300
300
300
300
300
300
300
300
300
300
300
300
300
300
300
300
300
300
300
300
300
300
300
300
300
300
300
300
300
300
300
300
300
300
300
300
300
300
300
300
300
300
300
300
300
300
300
300
300
300
300
)
;

boundaryField
{
    wedge0
    {
        type            wedge;
    }
    wedge1
    {
        type            wedge;
    }
    wedge2
    {
        type            wedge;
    }
    wedge3
    {
        type            wedge;
    }
    outlet
    {
        type            zeroGradient;
    }
    defaultFaces
    {
        type            empty;
    }
}


// ************************************************************************* //
