/*--------------------------------*- C++ -*----------------------------------*\
| =========                 |                                                 |
| \\      /  F ield         | OpenFOAM: The Open Source CFD Toolbox           |
|  \\    /   O peration     | Version:  2312                                  |
|   \\  /    A nd           | Website:  www.openfoam.com                      |
|    \\/     M anipulation  |                                                 |
\*---------------------------------------------------------------------------*/
FoamFile
{
    version     2.0;
    format      ascii;
    arch        "LSB;label=32;scalar=64";
    class       volScalarField;
    location    "0.00023";
    object      thermo:e;
}
// * * * * * * * * * * * * * * * * * * * * * * * * * * * * * * * * * * * * * //

dimensions      [0 2 -2 0 0 0 0];

internalField   nonuniform List<scalar> 
500
(
9.34454e+07
9.34326e+07
9.34019e+07
9.3354e+07
9.32893e+07
9.3208e+07
9.31102e+07
9.29959e+07
9.28654e+07
9.27186e+07
9.25558e+07
9.23769e+07
9.2182e+07
9.19714e+07
9.17452e+07
9.15033e+07
9.12461e+07
9.09736e+07
9.0686e+07
9.03834e+07
9.00661e+07
8.97341e+07
8.93877e+07
8.90271e+07
8.86524e+07
8.82639e+07
8.78617e+07
8.74461e+07
8.70174e+07
8.65756e+07
8.61211e+07
8.56541e+07
8.51748e+07
8.46836e+07
8.41805e+07
8.3666e+07
8.31402e+07
8.26035e+07
8.20561e+07
8.14982e+07
8.09302e+07
8.03524e+07
7.97649e+07
7.91682e+07
7.85624e+07
7.7948e+07
7.73251e+07
7.66941e+07
7.60553e+07
7.54089e+07
7.47554e+07
7.40949e+07
7.34277e+07
7.27543e+07
7.20748e+07
7.13896e+07
7.0699e+07
7.00033e+07
6.93028e+07
6.85977e+07
6.78885e+07
6.71753e+07
6.64585e+07
6.57384e+07
6.50152e+07
6.42893e+07
6.35609e+07
6.28304e+07
6.2098e+07
6.13639e+07
6.06286e+07
5.98921e+07
5.91549e+07
5.84172e+07
5.76792e+07
5.69412e+07
5.62035e+07
5.54663e+07
5.47299e+07
5.39944e+07
5.32602e+07
5.25276e+07
5.17966e+07
5.10675e+07
5.03407e+07
4.96162e+07
4.88943e+07
4.81752e+07
4.74592e+07
4.67463e+07
4.60369e+07
4.5331e+07
4.46289e+07
4.39307e+07
4.32367e+07
4.2547e+07
4.18617e+07
4.1181e+07
4.05051e+07
3.98341e+07
3.91682e+07
3.85074e+07
3.7852e+07
3.7202e+07
3.65576e+07
3.59189e+07
3.52859e+07
3.46589e+07
3.40378e+07
3.34228e+07
3.28141e+07
3.22116e+07
3.16154e+07
3.10257e+07
3.04424e+07
2.98658e+07
2.92957e+07
2.87323e+07
2.81757e+07
2.76258e+07
2.70828e+07
2.65466e+07
2.60173e+07
2.54949e+07
2.49795e+07
2.4471e+07
2.39696e+07
2.34751e+07
2.29877e+07
2.25072e+07
2.20338e+07
2.15674e+07
2.1108e+07
2.06557e+07
2.02103e+07
1.97719e+07
1.93404e+07
1.89159e+07
1.84983e+07
1.80876e+07
1.76838e+07
1.72868e+07
1.68966e+07
1.65131e+07
1.61363e+07
1.57663e+07
1.54028e+07
1.50459e+07
1.46956e+07
1.43517e+07
1.40142e+07
1.36832e+07
1.33584e+07
1.30399e+07
1.27275e+07
1.24213e+07
1.21212e+07
1.18271e+07
1.15389e+07
1.12566e+07
1.09801e+07
1.07093e+07
1.04442e+07
1.01847e+07
9.93071e+06
9.68216e+06
9.43899e+06
9.20112e+06
8.96848e+06
8.74099e+06
8.51857e+06
8.30116e+06
8.08867e+06
7.88103e+06
7.67816e+06
7.47999e+06
7.28643e+06
7.09742e+06
6.91287e+06
6.73272e+06
6.55687e+06
6.38527e+06
6.21782e+06
6.05446e+06
5.89511e+06
5.7397e+06
5.58814e+06
5.44038e+06
5.29632e+06
5.15591e+06
5.01906e+06
4.88571e+06
4.75579e+06
4.62922e+06
4.50593e+06
4.38585e+06
4.26893e+06
4.15508e+06
4.04424e+06
3.93635e+06
3.83133e+06
3.72914e+06
3.62969e+06
3.53293e+06
3.4388e+06
3.34723e+06
3.25817e+06
3.17155e+06
3.08733e+06
3.00543e+06
2.9258e+06
2.8484e+06
2.77315e+06
2.70002e+06
2.62894e+06
2.55987e+06
2.49275e+06
2.42754e+06
2.36418e+06
2.30263e+06
2.24285e+06
2.18477e+06
2.12837e+06
2.07359e+06
2.02039e+06
1.96874e+06
1.91858e+06
1.86988e+06
1.8226e+06
1.77669e+06
1.73213e+06
1.68888e+06
1.64689e+06
1.60614e+06
1.56659e+06
1.52821e+06
1.49095e+06
1.4548e+06
1.41972e+06
1.38568e+06
1.35265e+06
1.3206e+06
1.2895e+06
1.25934e+06
1.23007e+06
1.20167e+06
1.17412e+06
1.1474e+06
1.12148e+06
1.09633e+06
1.07194e+06
1.04829e+06
1.02534e+06
1.00308e+06
981499
960565
940262
920573
901479
882964
865010
847600
830720
814353
798484
783099
768185
753726
739710
726124
712955
700192
687823
675835
664219
652964
642059
631494
621259
611346
601744
592446
583442
574724
566284
558115
550209
542559
535156
527996
521071
514374
507900
501642
495594
489752
484109
478660
473399
468323
463426
458704
454152
449765
445539
441470
437555
433789
430168
426689
423348
420142
417068
414121
411300
408600
406018
403553
401200
398958
396822
394792
392864
391035
389303
387667
386122
384667
383301
382020
380822
379705
378668
377708
376823
376011
375269
374596
373991
373450
372972
372553
372191
371883
371625
371409
371227
371067
370909
370721
370453
370027
369315
368111
366080
362677
357042
347864
333374
311841
283382
253116
230630
220031
216591
215648
215399
215334
215316
215312
215310
215310
215310
215310
215310
215310
215310
215310
215310
215310
215310
215310
215310
215310
215310
215310
215310
215310
215310
215310
215310
215310
215310
215310
215310
215310
215310
215310
215310
215310
215310
215310
215310
215310
215310
215310
215310
215310
215310
215310
215310
215310
215310
215310
215310
215310
215310
215310
215310
215310
215310
215310
215310
215310
215310
215310
215310
215310
215310
215310
215310
215310
215310
215310
215310
215310
215310
215310
215310
215310
215310
215310
215310
215310
215310
215310
215310
215310
215310
215310
215310
215310
215310
215310
215310
215310
215310
215310
215310
215310
215310
215310
215310
215310
215310
215310
215310
215310
215310
215310
215310
215310
215310
215310
215310
215310
215310
215310
215310
215310
215310
215310
215310
215310
215310
215310
215310
215310
215310
215310
215310
215310
215310
215310
215310
215310
215310
215310
215310
215310
)
;

boundaryField
{
    wedge0
    {
        type            wedge;
    }
    wedge1
    {
        type            wedge;
    }
    wedge2
    {
        type            wedge;
    }
    wedge3
    {
        type            wedge;
    }
    outlet
    {
        type            zeroGradient;
    }
    defaultFaces
    {
        type            empty;
    }
}


// ************************************************************************* //
