/*--------------------------------*- C++ -*----------------------------------*\
| =========                 |                                                 |
| \\      /  F ield         | OpenFOAM: The Open Source CFD Toolbox           |
|  \\    /   O peration     | Version:  2312                                  |
|   \\  /    A nd           | Website:  www.openfoam.com                      |
|    \\/     M anipulation  |                                                 |
\*---------------------------------------------------------------------------*/
FoamFile
{
    version     2.0;
    format      ascii;
    arch        "LSB;label=32;scalar=64";
    class       volVectorField;
    location    "0.00023";
    object      U;
}
// * * * * * * * * * * * * * * * * * * * * * * * * * * * * * * * * * * * * * //

dimensions      [0 1 -1 0 0 0 0];

internalField   nonuniform List<vector> 
500
(
(0.897987 -3.32574e-10 3.34649e-10)
(1.61675 -3.21605e-10 3.24421e-10)
(2.41846 -3.31282e-10 3.33757e-10)
(3.26997 -3.31021e-10 3.32769e-10)
(4.14136 -3.14195e-10 3.14895e-10)
(5.02236 -3.14425e-10 3.14534e-10)
(5.90868 -3.12183e-10 3.12147e-10)
(6.79827 -3.0721e-10 3.07201e-10)
(7.69 -2.94817e-10 2.94837e-10)
(8.5832 -2.78373e-10 2.78399e-10)
(9.47747 -2.63539e-10 2.63524e-10)
(10.3725 -2.52046e-10 2.51594e-10)
(11.2682 -2.39913e-10 2.39074e-10)
(12.1643 -2.27472e-10 2.2634e-10)
(13.0609 -2.14994e-10 2.13487e-10)
(13.9577 -2.03435e-10 2.00785e-10)
(14.8548 -1.92656e-10 1.90729e-10)
(15.7521 -1.85931e-10 1.85626e-10)
(16.6496 -1.80115e-10 1.79992e-10)
(17.5473 -1.77938e-10 1.77938e-10)
(18.4451 -1.75766e-10 1.75762e-10)
(19.343 -1.73007e-10 1.7301e-10)
(20.241 -1.70918e-10 1.70911e-10)
(21.1392 -1.69147e-10 1.69135e-10)
(22.0374 -1.66277e-10 1.66267e-10)
(22.9356 -1.62571e-10 1.62578e-10)
(23.834 -1.5917e-10 1.59155e-10)
(24.7324 -1.55621e-10 1.55612e-10)
(25.6309 -1.49659e-10 1.4965e-10)
(26.5294 -1.4498e-10 1.44975e-10)
(27.428 -1.39853e-10 1.39855e-10)
(28.3266 -1.35559e-10 1.35561e-10)
(29.2253 -1.29509e-10 1.29511e-10)
(30.1241 -1.24335e-10 1.24336e-10)
(31.0228 -1.18924e-10 1.18924e-10)
(31.9216 -1.14421e-10 1.14427e-10)
(32.8205 -1.09658e-10 1.09658e-10)
(33.7194 -1.05043e-10 1.05043e-10)
(34.6183 -1.00211e-10 1.00211e-10)
(35.5172 -9.56964e-11 9.56964e-11)
(36.4162 -9.01579e-11 9.01579e-11)
(37.3153 -8.37023e-11 8.37023e-11)
(38.2143 -7.79568e-11 7.79568e-11)
(39.1134 -7.21959e-11 7.21959e-11)
(40.0125 -6.70284e-11 6.70284e-11)
(40.9117 -6.17977e-11 6.17977e-11)
(41.8109 -5.61965e-11 5.61965e-11)
(42.7101 -5.06045e-11 5.06045e-11)
(43.6094 -4.46855e-11 4.46855e-11)
(44.5087 -3.95679e-11 3.95679e-11)
(45.408 -3.48092e-11 3.48092e-11)
(46.3073 -2.97494e-11 2.97494e-11)
(47.2067 -2.53603e-11 2.53603e-11)
(48.1061 -2.08956e-11 2.08956e-11)
(49.0056 -1.70403e-11 1.70403e-11)
(49.9051 -1.29103e-11 1.29103e-11)
(50.8046 -9.08123e-12 9.08123e-12)
(51.7041 -5.78211e-12 5.78211e-12)
(52.6037 -2.96608e-12 2.96608e-12)
(53.5033 -1.52456e-13 1.52456e-13)
(54.403 1.53061e-12 -1.53061e-12)
(55.3027 2.828e-12 -2.828e-12)
(56.2024 4.03326e-12 -4.03326e-12)
(57.1022 4.89676e-12 -4.89676e-12)
(58.002 5.43909e-12 -5.43909e-12)
(58.9018 5.6817e-12 -5.6817e-12)
(59.8017 6.13498e-12 -6.13498e-12)
(60.7016 6.84788e-12 -6.84788e-12)
(61.6016 6.77171e-12 -6.77171e-12)
(62.5016 6.60335e-12 -6.60335e-12)
(63.4017 6.43499e-12 -6.43499e-12)
(64.3017 6.19237e-12 -6.19237e-12)
(65.2019 6.00254e-12 -6.00254e-12)
(66.102 5.86266e-12 -5.86266e-12)
(67.0023 5.69232e-12 -5.69053e-12)
(67.9025 5.70669e-12 -5.70555e-12)
(68.8029 5.5257e-12 -5.52544e-12)
(69.7032 5.30844e-12 -5.30682e-12)
(70.6036 5.09716e-12 -5.09447e-12)
(71.5041 4.73797e-12 -4.7357e-12)
(72.4046 4.2189e-12 -4.21667e-12)
(73.3052 3.53952e-12 -3.53821e-12)
(74.2058 2.71694e-12 -2.71673e-12)
(75.1065 1.68109e-12 -1.65692e-12)
(76.0072 5.13374e-13 -4.64651e-13)
(76.908 -7.82371e-13 8.5335e-13)
(77.8089 -1.62591e-12 1.71836e-12)
(78.7098 -2.59674e-12 2.66221e-12)
(79.6108 -3.14617e-12 3.18388e-12)
(80.5118 -3.57446e-12 3.5718e-12)
(81.4129 -3.781e-12 3.70379e-12)
(82.3141 -3.73839e-12 3.58628e-12)
(83.2154 -3.67028e-12 3.61637e-12)
(84.1167 -3.45374e-12 3.41991e-12)
(85.0181 -3.01344e-12 2.99843e-12)
(85.9195 -2.48319e-12 2.36565e-12)
(86.8211 -2.14881e-12 1.9152e-12)
(87.7227 -1.68062e-12 1.67783e-12)
(88.6244 -1.23176e-12 1.24771e-12)
(89.5262 -7.81834e-13 8.2016e-13)
(90.428 -5.27946e-13 5.88959e-13)
(91.33 -3.62298e-13 4.4075e-13)
(92.2321 -9.95792e-14 1.13348e-13)
(93.1342 2.39703e-13 -2.5665e-13)
(94.0364 7.48761e-13 -7.95361e-13)
(94.9387 1.42414e-12 -1.45863e-12)
(95.8412 1.93397e-12 -1.95775e-12)
(96.7437 2.60312e-12 -2.61667e-12)
(97.6463 3.12126e-12 -3.12353e-12)
(98.5491 3.55977e-12 -3.56122e-12)
(99.4519 3.85767e-12 -3.85857e-12)
(100.355 4.02143e-12 -4.02123e-12)
(101.258 3.98414e-12 -3.98369e-12)
(102.161 3.94887e-12 -3.94926e-12)
(103.065 4.03524e-12 -4.03622e-12)
(103.968 4.00086e-12 -4.00101e-12)
(104.872 3.84791e-12 -3.84814e-12)
(105.775 3.76855e-12 -3.7686e-12)
(106.679 3.79345e-12 -3.79387e-12)
(107.583 3.71156e-12 -3.71148e-12)
(108.487 3.96952e-12 -3.96981e-12)
(109.392 4.12917e-12 -4.12934e-12)
(110.296 3.9805e-12 -3.9802e-12)
(111.201 3.73499e-12 -3.73391e-12)
(112.105 3.44073e-12 -3.44021e-12)
(113.01 3.17299e-12 -3.17278e-12)
(113.915 2.81356e-12 -2.81307e-12)
(114.821 2.36157e-12 -2.36085e-12)
(115.726 1.8435e-12 -1.8432e-12)
(116.632 1.32722e-12 -1.32679e-12)
(117.538 8.7655e-13 -8.75932e-13)
(118.444 4.90476e-13 -4.89793e-13)
(119.35 1.70348e-13 -1.6959e-13)
(120.257 -7.9846e-14 8.06063e-14)
(121.163 -3.30175e-13 3.30932e-13)
(122.07 -3.59109e-13 3.59479e-13)
(122.977 -1.67914e-13 1.68278e-13)
(123.885 -1.89169e-13 1.8917e-13)
(124.792 -1.89227e-13 1.89227e-13)
(125.7 -1.88096e-13 1.88096e-13)
(126.608 -1.87504e-13 1.87504e-13)
(127.517 -1.86001e-13 1.86001e-13)
(128.426 -2.1475e-13 2.1475e-13)
(129.335 -1.83492e-13 1.83492e-13)
(130.244 -1.82149e-13 1.82149e-13)
(131.153 -1.60095e-13 1.60095e-13)
(132.063 -1.96447e-13 1.96447e-13)
(132.974 -1.79536e-13 1.79536e-13)
(133.884 -1.36521e-13 1.36743e-13)
(134.795 -3.91215e-14 3.92902e-14)
(135.706 -9.38654e-14 9.42129e-14)
(136.618 -1.76123e-13 1.76244e-13)
(137.53 -1.19048e-13 1.19368e-13)
(138.443 -7.62147e-14 7.63302e-14)
(139.355 -1.72997e-13 1.72918e-13)
(140.269 -1.71627e-13 1.71545e-13)
(141.182 -1.74465e-13 1.74493e-13)
(142.096 -2.22578e-13 2.22493e-13)
(143.011 -1.45541e-13 1.45469e-13)
(143.926 -1.89935e-13 1.89998e-13)
(144.842 -1.97472e-13 1.97489e-13)
(145.758 -1.66315e-13 1.66258e-13)
(146.674 -1.25799e-13 1.25862e-13)
(147.591 -1.97643e-13 1.97762e-13)
(148.509 -1.63649e-13 1.63603e-13)
(149.427 -1.62183e-13 1.62115e-13)
(150.346 -1.52327e-13 1.52239e-13)
(151.266 -1.07998e-13 1.07878e-13)
(152.186 -1.62138e-13 1.62026e-13)
(153.106 -2.54857e-13 2.54653e-13)
(154.028 -3.90475e-13 3.90232e-13)
(154.95 -5.73217e-13 5.72841e-13)
(155.873 -6.84341e-13 6.83863e-13)
(156.796 -7.8162e-13 7.81415e-13)
(157.721 -8.86092e-13 8.85859e-13)
(158.646 -9.2088e-13 9.20611e-13)
(159.572 -8.81165e-13 8.80838e-13)
(160.499 -8.15338e-13 8.14926e-13)
(161.427 -6.94323e-13 6.94038e-13)
(162.355 -5.11102e-13 5.10827e-13)
(163.285 -3.60552e-13 3.60175e-13)
(164.215 -2.52653e-13 2.52348e-13)
(165.147 -1.81129e-13 1.80909e-13)
(166.079 -1.48977e-13 1.48944e-13)
(167.013 -1.48532e-13 1.48554e-13)
(167.948 -1.3408e-13 1.34114e-13)
(168.884 -7.40918e-14 7.40266e-14)
(169.821 -4.06329e-14 4.03495e-14)
(170.759 0 0)
(171.699 2.77613e-14 -2.77613e-14)
(172.64 7.13099e-14 -7.13099e-14)
(173.582 8.30024e-14 -8.30024e-14)
(174.526 5.8464e-14 -5.8464e-14)
(175.471 2.93115e-14 -2.93115e-14)
(176.418 3.25248e-14 -3.25248e-14)
(177.366 0 0)
(178.315 -3.41412e-14 3.42094e-14)
(179.267 -4.01767e-14 4.03796e-14)
(180.22 -1.38659e-14 1.41144e-14)
(181.175 5.11609e-14 -5.08623e-14)
(182.132 9.76789e-14 -9.73003e-14)
(183.09 1.23204e-13 -1.22796e-13)
(184.051 1.37499e-13 -1.37125e-13)
(185.013 1.25936e-13 -1.25601e-13)
(185.978 8.44365e-14 -8.41019e-14)
(186.945 6.34472e-14 -6.31137e-14)
(187.914 6.69824e-14 -6.66603e-14)
(188.885 4.38212e-14 -4.34954e-14)
(189.859 4.2919e-14 -4.26195e-14)
(190.835 1.52006e-14 -1.49684e-14)
(191.814 -3.85923e-15 4.12425e-15)
(192.795 -2.20188e-14 2.22634e-14)
(193.779 -7.1224e-14 7.14122e-14)
(194.766 -1.11077e-13 1.11158e-13)
(195.756 -1.61255e-13 1.61336e-13)
(196.748 -2.0559e-13 2.05658e-13)
(197.744 -1.96806e-13 1.96889e-13)
(198.743 -1.65217e-13 1.65275e-13)
(199.745 -1.40228e-13 1.40279e-13)
(200.751 -1.26075e-13 1.26081e-13)
(201.76 -1.20338e-13 1.2034e-13)
(202.773 -1.14622e-13 1.14601e-13)
(203.789 -1.09509e-13 1.09495e-13)
(204.81 -9.44472e-14 9.44472e-14)
(205.834 -5.7423e-14 5.7423e-14)
(206.862 -6.5799e-14 6.5799e-14)
(207.895 -8.0013e-14 8.0013e-14)
(208.932 -1.20809e-13 1.20809e-13)
(209.973 -1.25795e-13 1.25795e-13)
(211.02 -1.53824e-13 1.53824e-13)
(212.07 -1.80317e-13 1.80317e-13)
(213.126 -1.70008e-13 1.70008e-13)
(214.187 -1.73802e-13 1.73802e-13)
(215.253 -1.6625e-13 1.6625e-13)
(216.325 -1.75358e-13 1.75358e-13)
(217.402 -1.76759e-13 1.76759e-13)
(218.485 -1.66843e-13 1.66843e-13)
(219.573 -1.71337e-13 1.71337e-13)
(220.668 -1.66891e-13 1.66891e-13)
(221.769 -1.70295e-13 1.70295e-13)
(222.877 -1.95061e-13 1.95061e-13)
(223.991 -1.96755e-13 1.96755e-13)
(225.112 -1.89972e-13 1.89972e-13)
(226.24 -1.41005e-13 1.41005e-13)
(227.375 -1.06319e-13 1.06319e-13)
(228.517 -9.31936e-14 9.31936e-14)
(229.667 -1.14924e-13 1.14924e-13)
(230.825 -1.14749e-13 1.14749e-13)
(231.992 -1.0456e-13 1.0456e-13)
(233.166 -1.29272e-13 1.29272e-13)
(234.349 -1.38046e-13 1.38046e-13)
(235.54 -1.45301e-13 1.45301e-13)
(236.741 -1.5053e-13 1.5053e-13)
(237.95 -1.52678e-13 1.52678e-13)
(239.169 -1.52591e-13 1.52591e-13)
(240.398 -1.46266e-13 1.46266e-13)
(241.637 -1.51327e-13 1.51327e-13)
(242.886 -1.54711e-13 1.54711e-13)
(244.145 -1.38131e-13 1.38131e-13)
(245.415 -1.22483e-13 1.22483e-13)
(246.696 -1.07469e-13 1.07469e-13)
(247.988 -9.2786e-14 9.2786e-14)
(249.292 -7.76679e-14 7.76679e-14)
(250.608 -6.05976e-14 6.05976e-14)
(251.935 -3.83578e-14 3.83578e-14)
(253.275 -2.46354e-14 2.46354e-14)
(254.627 -6.77033e-15 6.77033e-15)
(255.992 8.10929e-16 -8.10929e-16)
(257.371 7.66215e-15 -7.66215e-15)
(258.762 1.38649e-14 -1.38649e-14)
(260.168 1.92061e-14 -1.92061e-14)
(261.587 2.30554e-14 -2.30554e-14)
(263.021 2.35765e-14 -2.35765e-14)
(264.47 1.64212e-14 -1.64212e-14)
(265.933 8.62587e-15 -8.62587e-15)
(267.411 -1.99652e-15 1.99652e-15)
(268.905 -4.41769e-16 4.41769e-16)
(270.414 -3.67908e-15 3.67908e-15)
(271.94 -3.02305e-15 3.02305e-15)
(273.482 -4.12934e-16 4.12934e-16)
(275.04 0 9.70569e-35)
(276.615 1.28089e-15 -1.28089e-15)
(278.208 8.5761e-15 -8.5761e-15)
(279.818 1.1852e-14 -1.1852e-14)
(281.445 4.57611e-15 -4.57611e-15)
(283.09 1.19687e-15 -1.19687e-15)
(284.754 0 8.59738e-35)
(286.436 0 0)
(288.137 -6.72899e-15 6.72899e-15)
(289.857 -1.12738e-14 1.12738e-14)
(291.596 -1.01975e-14 1.01975e-14)
(293.354 -6.09083e-15 6.09083e-15)
(295.132 -9.56481e-15 9.56481e-15)
(296.93 -5.56274e-15 5.56274e-15)
(298.749 -1.04002e-15 1.04002e-15)
(300.587 3.87153e-15 -3.87153e-15)
(302.446 -4.26093e-16 4.26093e-16)
(304.326 0 6.32658e-35)
(306.227 0 0)
(308.148 0 5.89268e-35)
(310.091 -7.16595e-15 7.16595e-15)
(312.055 -1.97988e-15 1.97988e-15)
(314.041 -8.35361e-15 8.35361e-15)
(316.049 -5.598e-15 5.598e-15)
(318.078 3.25443e-15 -3.25443e-15)
(320.129 6.28677e-16 -6.28677e-16)
(322.202 0 4.68902e-35)
(324.297 0 0)
(326.414 -1.07204e-14 1.07204e-14)
(328.553 -1.89353e-14 1.89353e-14)
(330.714 -1.49461e-14 1.49461e-14)
(332.898 -1.10435e-14 1.10435e-14)
(335.104 -7.45462e-15 7.45462e-15)
(337.332 -4.26869e-15 4.26869e-15)
(339.582 3.57005e-15 -3.57005e-15)
(341.854 6.1847e-16 -6.1847e-16)
(344.148 -5.38589e-16 5.38589e-16)
(346.465 -2.83381e-16 2.83381e-16)
(348.803 -2.9783e-15 2.9783e-15)
(351.163 -1.13335e-14 1.13335e-14)
(353.545 -1.90424e-14 1.90424e-14)
(355.948 -2.52105e-14 2.52105e-14)
(358.373 -2.3196e-14 2.3196e-14)
(360.82 -2.97143e-14 2.97143e-14)
(363.288 -3.37171e-14 3.37171e-14)
(365.776 -3.03704e-14 3.03704e-14)
(368.286 -2.71533e-14 2.71533e-14)
(370.816 -2.3753e-14 2.3753e-14)
(373.366 -1.74396e-14 1.74396e-14)
(375.937 -1.86505e-14 1.86505e-14)
(378.528 -1.72853e-14 1.72853e-14)
(381.138 -1.55897e-14 1.55897e-14)
(383.767 -1.37818e-14 1.37818e-14)
(386.416 -1.76792e-14 1.76792e-14)
(389.082 -2.02497e-14 2.02497e-14)
(391.768 -1.61364e-14 1.61364e-14)
(394.472 -1.22361e-14 1.22361e-14)
(397.193 -8.5472e-15 8.5472e-15)
(399.929 -5.11275e-15 5.11275e-15)
(402.68 -2.7787e-15 2.7787e-15)
(405.443 -2.32546e-15 2.32546e-15)
(408.216 -5.0744e-15 5.0744e-15)
(410.993 -4.34512e-15 4.34512e-15)
(413.769 -2.5111e-15 2.5111e-15)
(416.534 2.09794e-16 -2.09794e-16)
(419.273 2.3893e-16 -2.3893e-16)
(421.961 2.70047e-15 -2.70047e-15)
(424.562 1.02692e-15 -1.02692e-15)
(427.017 -1.4473e-15 1.4473e-15)
(429.231 -2.229e-15 2.229e-15)
(431.054 -4.5749e-15 4.5749e-15)
(432.243 -6.72496e-15 6.72496e-15)
(432.407 -4.36619e-15 4.36619e-15)
(430.913 -4.213e-15 4.213e-15)
(426.744 -2.5445e-15 2.5445e-15)
(418.279 -2.96623e-16 2.96623e-16)
(403.004 0 5.87112e-36)
(377.239 -2.96465e-15 2.96465e-15)
(336.266 -5.90322e-15 5.90322e-15)
(275.899 -5.9035e-15 5.9035e-15)
(197.203 -6.75596e-15 6.75596e-15)
(113.684 -4.27843e-15 4.27843e-15)
(49.5111 -3.30529e-15 3.30529e-15)
(16.6809 -4.03763e-15 4.03763e-15)
(4.85047 -8.52029e-16 8.52029e-16)
(1.33079 -2.11342e-15 2.11342e-15)
(0.357547 0 0)
(0.095155 1.67193e-15 -1.67193e-15)
(0.0251652 0 0)
(0.00661958 0 0)
(0.00173238 -7.97228e-16 7.97228e-16)
(0.000451112 -4.87835e-15 4.87835e-15)
(0.000116891 -5.66711e-15 5.66711e-15)
(3.01407e-05 -9.70047e-15 9.70047e-15)
(7.73433e-06 -1.048e-14 1.048e-14)
(1.97518e-06 -8.0403e-15 8.0403e-15)
(5.02018e-07 -2.41559e-15 2.41559e-15)
(1.26989e-07 0 0)
(3.19662e-08 0 0)
(8.00153e-09 1.57127e-15 -1.57127e-15)
(1.9861e-09 2.71733e-18 -2.71733e-18)
(4.8273e-10 1.55474e-15 -1.55474e-15)
(1.08157e-10 0 0)
(1.84273e-11 0 0)
(-6.0326e-12 -1.52917e-15 1.52917e-15)
(-2.92377e-11 0 0)
(-3.73624e-11 0 0)
(-2.15519e-11 0 0)
(-2.76279e-12 2.9967e-15 -2.9967e-15)
(2.10537e-13 2.98914e-15 -2.98914e-15)
(1.84877e-12 8.73602e-18 -8.73602e-18)
(1.62704e-11 0 0)
(1.11481e-11 0 0)
(-4.07722e-12 1.46028e-15 -1.46028e-15)
(-9.51978e-12 0 0)
(1.44467e-12 0 0)
(2.1375e-11 0 0)
(3.13528e-11 0 0)
(2.61797e-11 0 0)
(1.93934e-11 0 0)
(1.88033e-11 0 0)
(1.96692e-11 0 0)
(3.23823e-11 5.96118e-16 -5.96118e-16)
(4.40048e-11 3.97407e-15 -3.97407e-15)
(3.44258e-11 1.01029e-14 -1.01029e-14)
(2.13843e-11 1.34434e-14 -1.34434e-14)
(1.90883e-11 1.4026e-14 -1.4026e-14)
(1.29126e-11 6.41929e-15 -6.41929e-15)
(2.00825e-12 1.56298e-15 -1.56298e-15)
(-5.90487e-12 -5.69024e-16 5.69024e-16)
(-7.75339e-12 0 0)
(1.99226e-12 0 0)
(4.71466e-12 0 0)
(-7.56794e-14 0 0)
(8.59622e-12 0 0)
(1.30845e-11 0 0)
(5.74842e-12 0 0)
(-6.95554e-12 0 0)
(3.49386e-13 -8.62104e-16 8.62104e-16)
(2.42145e-11 8.5523e-16 -8.5523e-16)
(3.78461e-11 0 0)
(4.32676e-11 0 0)
(2.50416e-11 -1.26877e-15 1.26877e-15)
(1.59746e-11 -4.35249e-18 4.35249e-18)
(1.34812e-11 -1.25888e-15 1.25888e-15)
(-8.86522e-13 -4.07145e-18 4.07145e-18)
(-1.66901e-11 -1.24356e-15 1.24356e-15)
(-2.43505e-11 0 0)
(-1.28986e-11 -8.22038e-16 8.22038e-16)
(-6.98593e-12 8.16235e-16 -8.16235e-16)
(-8.91069e-12 0 0)
(-3.08907e-11 1.21481e-15 -1.21481e-15)
(-3.40424e-11 -8.05241e-19 8.05241e-19)
(-2.17076e-11 1.20262e-15 -1.20262e-15)
(-3.73318e-12 0 0)
(1.77058e-11 7.96096e-16 -7.96096e-16)
(2.96823e-11 -7.90007e-16 7.90007e-16)
(2.78426e-11 0 0)
(8.47473e-12 -9.22231e-16 9.22231e-16)
(-6.0485e-12 -4.1856e-15 4.1856e-15)
(-1.86575e-12 -9.76724e-15 9.76724e-15)
(1.05762e-11 -8.35237e-15 8.35237e-15)
(-7.8059e-12 0 0)
(-3.52259e-11 8.27346e-15 -8.27346e-15)
(-2.3846e-11 9.62854e-15 -9.62854e-15)
(-9.63426e-12 4.13094e-15 -4.13094e-15)
(-1.00743e-11 9.27119e-16 -9.27119e-16)
(1.71027e-11 0 0)
(4.46047e-11 9.54766e-16 -9.54766e-16)
(4.78653e-11 4.14547e-15 -4.14547e-15)
(2.60533e-11 6.24716e-16 -6.24716e-16)
(2.25901e-11 -1.86578e-15 1.86578e-15)
(3.08323e-11 -6.55788e-15 6.55788e-15)
(1.97795e-11 -4.62021e-15 4.62021e-15)
(1.85834e-11 -4.88407e-15 4.88407e-15)
(1.50547e-11 -7.32921e-15 7.32921e-15)
(9.42834e-12 -1.19373e-14 1.19373e-14)
(9.94128e-12 -1.86892e-14 1.86892e-14)
(8.52344e-12 -2.72544e-14 2.72544e-14)
(-8.95764e-12 -2.96853e-14 2.96853e-14)
(-2.26532e-11 -2.97764e-14 2.97764e-14)
(-2.5764e-11 -2.67002e-14 2.67002e-14)
(-3.4413e-11 -1.73069e-14 1.73069e-14)
(-3.06692e-11 -9.80134e-15 9.80134e-15)
(-1.84497e-11 -4.42715e-15 4.42715e-15)
(-1.39067e-11 -1.16634e-15 1.16634e-15)
(1.94759e-12 0 0)
(2.59641e-11 0 0)
(1.5758e-11 0 0)
(8.80494e-13 0 0)
(-5.40316e-12 0 0)
(1.47001e-12 6.73757e-16 -6.73757e-16)
(1.14744e-11 3.28773e-15 -3.28773e-15)
(-8.16615e-12 -1.70447e-16 1.70447e-16)
(-3.09119e-11 -5.62361e-15 5.62361e-15)
(-3.19936e-11 -5.04451e-15 5.04451e-15)
(-1.39275e-11 -6.46143e-15 6.46143e-15)
(6.06224e-14 -1.91121e-15 1.91121e-15)
(1.40322e-13 6.41744e-16 -6.41744e-16)
(-1.19671e-11 3.70601e-15 -3.70601e-15)
(-3.02786e-11 8.70948e-16 -8.70948e-16)
(-3.00205e-11 0 0)
(-1.37666e-11 0 0)
(-1.72868e-11 -3.60994e-16 3.60994e-16)
(-2.15348e-11 -2.64956e-15 2.64956e-15)
(-1.81909e-12 -6.84941e-15 6.84941e-15)
(1.86938e-11 -5.29149e-15 5.29149e-15)
(2.65179e-11 -9.4565e-15 9.4565e-15)
(9.33614e-12 -1.55024e-14 1.55024e-14)
(-1.61548e-11 -2.32857e-14 2.32857e-14)
(-2.31864e-11 -2.538e-14 2.538e-14)
(-2.02757e-11 -2.36464e-14 2.36464e-14)
(-6.43822e-12 -1.63006e-14 1.63006e-14)
(1.13078e-11 -1.07246e-14 1.07246e-14)
(2.47057e-11 -7.02328e-15 7.02328e-15)
(3.96804e-11 -5.18141e-15 5.18141e-15)
(4.22681e-11 -5.18403e-15 5.18403e-15)
(3.48246e-11 -7.0166e-15 7.0166e-15)
(2.32717e-11 -3.37257e-15 3.37257e-15)
(1.43854e-11 -1.55793e-15 1.55793e-15)
)
;

boundaryField
{
    wedge0
    {
        type            wedge;
    }
    wedge1
    {
        type            wedge;
    }
    wedge2
    {
        type            wedge;
    }
    wedge3
    {
        type            wedge;
    }
    outlet
    {
        type            zeroGradient;
    }
    defaultFaces
    {
        type            empty;
    }
}


// ************************************************************************* //
