/*--------------------------------*- C++ -*----------------------------------*\
| =========                 |                                                 |
| \\      /  F ield         | OpenFOAM: The Open Source CFD Toolbox           |
|  \\    /   O peration     | Version:  2312                                  |
|   \\  /    A nd           | Website:  www.openfoam.com                      |
|    \\/     M anipulation  |                                                 |
\*---------------------------------------------------------------------------*/
FoamFile
{
    version     2.0;
    format      ascii;
    arch        "LSB;label=32;scalar=64";
    class       volScalarField;
    location    "0.05";
    object      rho;
}
// * * * * * * * * * * * * * * * * * * * * * * * * * * * * * * * * * * * * * //

dimensions      [1 -3 0 0 0 0 0];

internalField   nonuniform List<scalar> 
100
(
0.4855
0.484059
0.482118
0.480156
0.478124
0.476037
0.473871
0.47163
0.469303
0.466902
0.464417
0.46189
0.459289
0.456709
0.454062
0.451527
0.448918
0.44652
0.444032
0.441832
0.439541
0.437544
0.435519
0.433683
0.431976
0.430234
0.428869
0.427161
0.426136
0.424419
0.42371
0.421967
0.421528
0.419791
0.41953
0.4179
0.417668
0.416312
0.415927
0.415022
0.414349
0.413991
0.413029
0.413171
0.412072
0.412547
0.411549
0.412161
0.411475
0.412099
0.411829
0.412444
0.41258
0.413235
0.413701
0.41445
0.415155
0.416013
0.416875
0.41782
0.418768
0.419753
0.420726
0.421703
0.422652
0.423587
0.424493
0.425392
0.4263
0.42728
0.428445
0.430031
0.432475
0.436532
0.443277
0.45375
0.468168
0.48524
0.502525
0.517638
0.529314
0.537502
0.542871
0.546255
0.548354
0.549667
0.550512
0.551085
0.5515
0.551828
0.552103
0.552352
0.552585
0.552812
0.553034
0.553258
0.553482
0.553711
0.553943
0.554112
)
;

boundaryField
{
    sides
    {
        type            zeroGradient;
    }
    empty
    {
        type            empty;
    }
}


// ************************************************************************* //
