/*--------------------------------*- C++ -*----------------------------------*\
| =========                 |                                                 |
| \\      /  F ield         | OpenFOAM: The Open Source CFD Toolbox           |
|  \\    /   O peration     | Version:  2312                                  |
|   \\  /    A nd           | Website:  www.openfoam.com                      |
|    \\/     M anipulation  |                                                 |
\*---------------------------------------------------------------------------*/
FoamFile
{
    version     2.0;
    format      ascii;
    arch        "LSB;label=32;scalar=64";
    class       volScalarField;
    location    "0.05";
    object      T;
}
// * * * * * * * * * * * * * * * * * * * * * * * * * * * * * * * * * * * * * //

dimensions      [0 0 0 1 0 0 0];

internalField   nonuniform List<scalar> 
100
(
228.567
228.299
227.705
227.202
226.701
226.25
225.844
225.472
225.18
224.886
224.728
224.469
224.476
224.159
224.382
223.86
224.374
223.483
224.359
222.986
224.216
222.397
223.812
221.808
223.033
221.327
221.811
221.041
220.137
220.994
218.055
221.178
215.67
221.5
213.18
221.744
210.889
221.606
209.133
220.807
208.131
219.25
207.865
217.098
208.067
214.702
208.358
212.432
208.429
210.513
208.158
208.985
207.595
207.766
206.864
206.754
206.087
205.878
205.339
205.113
204.665
204.455
204.085
203.91
203.612
203.482
203.252
203.173
203.014
203.002
202.94
203.061
203.223
203.73
204.555
206.097
208.283
211.192
214.232
217.135
219.369
221.071
222.113
222.861
223.24
223.558
223.679
223.839
223.874
223.98
223.989
224.077
224.079
224.159
224.162
224.24
224.246
224.322
224.331
224.414
)
;

boundaryField
{
    sides
    {
        type            zeroGradient;
    }
    empty
    {
        type            empty;
    }
}


// ************************************************************************* //
