/*--------------------------------*- C++ -*----------------------------------*\
| =========                 |                                                 |
| \\      /  F ield         | OpenFOAM: The Open Source CFD Toolbox           |
|  \\    /   O peration     | Version:  2312                                  |
|   \\  /    A nd           | Website:  www.openfoam.com                      |
|    \\/     M anipulation  |                                                 |
\*---------------------------------------------------------------------------*/
FoamFile
{
    version     2.0;
    format      ascii;
    arch        "LSB;label=32;scalar=64";
    class       volScalarField;
    location    "0.05";
    object      thermo:e;
}
// * * * * * * * * * * * * * * * * * * * * * * * * * * * * * * * * * * * * * //

dimensions      [0 2 -2 0 0 0 0];

internalField   nonuniform List<scalar> 
100
(
164385
164193
163765
163404
163043
162719
162427
162160
161949
161738
161624
161438
161443
161215
161375
161000
161370
160729
161359
160371
161256
159948
160966
159525
160405
159179
159526
158973
158322
158939
156825
159071
155110
159302
153319
159478
151672
159379
150408
158804
149688
157685
149497
156137
149642
154414
149851
152781
149902
151401
149707
150302
149302
149426
148777
148697
148218
148067
147680
147517
147195
147044
146778
146652
146438
146344
146179
146122
146007
145999
145954
146042
146158
146523
147116
148225
149797
151889
154076
156163
157771
158994
159744
160282
160554
160783
160870
160985
161010
161087
161093
161156
161157
161215
161217
161273
161278
161332
161339
161398
)
;

boundaryField
{
    sides
    {
        type            zeroGradient;
    }
    empty
    {
        type            empty;
    }
}


// ************************************************************************* //
