/*--------------------------------*- C++ -*----------------------------------*\
| =========                 |                                                 |
| \\      /  F ield         | OpenFOAM: The Open Source CFD Toolbox           |
|  \\    /   O peration     | Version:  2312                                  |
|   \\  /    A nd           | Website:  www.openfoam.com                      |
|    \\/     M anipulation  |                                                 |
\*---------------------------------------------------------------------------*/
FoamFile
{
    version     2.0;
    format      ascii;
    arch        "LSB;label=32;scalar=64";
    class       volScalarField;
    location    "7e-05";
    object      p;
}
// * * * * * * * * * * * * * * * * * * * * * * * * * * * * * * * * * * * * * //

dimensions      [1 -1 -2 0 0 0 0];

internalField   nonuniform List<scalar> 
100
(
4.63368e+07
4.63368e+07
4.63368e+07
4.63368e+07
4.63368e+07
4.63368e+07
4.63368e+07
4.63368e+07
4.63368e+07
4.63368e+07
4.63368e+07
4.63368e+07
4.63368e+07
4.63368e+07
4.63368e+07
4.63368e+07
4.63368e+07
4.63368e+07
4.63368e+07
4.6337e+07
4.63389e+07
4.63586e+07
4.65653e+07
4.86886e+07
6.69712e+07
1.50444e+08
3.20452e+08
5.01469e+08
6.17967e+08
6.64842e+08
6.74727e+08
6.73557e+08
6.70981e+08
6.68961e+08
6.67452e+08
6.66247e+08
6.65296e+08
6.64623e+08
6.64169e+08
6.63722e+08
6.63123e+08
6.62501e+08
6.6217e+08
6.62303e+08
6.62808e+08
6.6358e+08
6.66541e+08
7.02395e+08
6.70109e+08
6.64534e+08
6.63405e+08
6.63293e+08
6.63659e+08
6.64347e+08
6.65201e+08
6.66065e+08
6.66838e+08
6.67496e+08
6.68083e+08
6.68669e+08
6.69316e+08
6.70055e+08
6.70883e+08
6.71778e+08
6.72718e+08
6.73687e+08
6.74685e+08
6.75724e+08
6.76818e+08
6.77987e+08
6.79243e+08
6.80597e+08
6.82054e+08
6.83623e+08
6.85311e+08
6.87132e+08
6.89102e+08
6.91239e+08
6.93563e+08
6.96093e+08
6.98843e+08
7.01827e+08
7.05052e+08
7.08525e+08
7.12248e+08
7.16224e+08
7.20457e+08
7.24952e+08
7.29716e+08
7.34757e+08
7.40087e+08
7.45718e+08
7.51661e+08
7.57925e+08
7.64517e+08
7.71438e+08
7.78684e+08
7.86236e+08
7.93999e+08
8.01222e+08
)
;

boundaryField
{
    sides
    {
        type            zeroGradient;
    }
    empty
    {
        type            empty;
    }
}


// ************************************************************************* //
