/*--------------------------------*- C++ -*----------------------------------*\
| =========                 |                                                 |
| \\      /  F ield         | OpenFOAM: The Open Source CFD Toolbox           |
|  \\    /   O peration     | Version:  2312                                  |
|   \\  /    A nd           | Website:  www.openfoam.com                      |
|    \\/     M anipulation  |                                                 |
\*---------------------------------------------------------------------------*/
FoamFile
{
    version     2.0;
    format      ascii;
    arch        "LSB;label=32;scalar=64";
    class       volScalarField;
    location    "7e-05";
    object      p;
}
// * * * * * * * * * * * * * * * * * * * * * * * * * * * * * * * * * * * * * //

dimensions      [1 -1 -2 0 0 0 0];

internalField   nonuniform List<scalar> 
100
(
1263.19
1263.19
1263.19
1263.19
1263.19
1263.19
1263.19
1263.19
1263.19
1263.19
1263.19
1263.19
1263.19
1263.19
1263.19
1263.19
1263.19
1263.19
1263.19
1263.19
1263.19
1263.19
1263.19
1263.19
1263.19
1263.19
1263.19
1263.19
1263.19
1263.19
1263.19
1263.19
1263.19
1263.19
1263.19
1263.19
1263.19
1263.19
1263.19
1263.19
1263.19
1263.19
1263.19
1263.19
1272.21
3422.71
15137.2
51479.9
138482
203820
153888
143226
142001
141900
141894
141894
141894
141894
141894
141894
141894
141894
141894
141894
141894
141894
141894
141894
141894
141894
141894
141894
141894
141894
141894
141894
141894
141894
141894
141894
141894
141894
141894
141894
141894
141894
141894
141894
141894
141894
141894
141894
141894
141894
141894
141894
141894
141894
141894
141894
)
;

boundaryField
{
    sides
    {
        type            zeroGradient;
    }
    empty
    {
        type            empty;
    }
}


// ************************************************************************* //
