/*--------------------------------*- C++ -*----------------------------------*\
| =========                 |                                                 |
| \\      /  F ield         | OpenFOAM: The Open Source CFD Toolbox           |
|  \\    /   O peration     | Version:  2312                                  |
|   \\  /    A nd           | Website:  www.openfoam.com                      |
|    \\/     M anipulation  |                                                 |
\*---------------------------------------------------------------------------*/
FoamFile
{
    version     2.0;
    format      ascii;
    arch        "LSB;label=32;scalar=64";
    class       volScalarField;
    location    "7e-05";
    object      rho;
}
// * * * * * * * * * * * * * * * * * * * * * * * * * * * * * * * * * * * * * //

dimensions      [1 -3 0 0 0 0 0];

internalField   nonuniform List<scalar> 
100
(
1.16102
1.16102
1.16102
1.16102
1.16102
1.16102
1.16102
1.16102
1.16102
1.16102
1.16102
1.16102
1.16102
1.16102
1.16102
1.16102
1.16102
1.16102
1.16102
1.16102
1.16105
1.16134
1.16414
1.18803
1.32802
1.74345
2.35773
2.86238
3.05713
2.96424
2.70599
2.38049
2.03606
1.70084
1.39415
1.12739
0.904264
0.722777
0.577831
0.463291
0.37327
0.302691
0.247362
0.203882
0.169557
0.14232
0.12084
0.107581
0.102636
0.101782
0.101609
0.101592
0.101648
0.101753
0.101884
0.102016
0.102135
0.102235
0.102325
0.102415
0.102514
0.102627
0.102754
0.102891
0.103035
0.103184
0.103336
0.103495
0.103663
0.103842
0.104035
0.104242
0.104465
0.104705
0.104964
0.105243
0.105544
0.105872
0.106228
0.106615
0.107037
0.107494
0.107987
0.108519
0.10909
0.109699
0.110347
0.111035
0.111765
0.112537
0.113354
0.114216
0.115126
0.116086
0.117095
0.118155
0.119265
0.120422
0.121611
0.122717
)
;

boundaryField
{
    sides
    {
        type            zeroGradient;
    }
    empty
    {
        type            empty;
    }
}


// ************************************************************************* //
