/*--------------------------------*- C++ -*----------------------------------*\
| =========                 |                                                 |
| \\      /  F ield         | OpenFOAM: The Open Source CFD Toolbox           |
|  \\    /   O peration     | Version:  2312                                  |
|   \\  /    A nd           | Website:  www.openfoam.com                      |
|    \\/     M anipulation  |                                                 |
\*---------------------------------------------------------------------------*/
FoamFile
{
    version     2.0;
    format      ascii;
    arch        "LSB;label=32;scalar=64";
    class       volScalarField;
    location    "7e-05";
    object      thermo:e;
}
// * * * * * * * * * * * * * * * * * * * * * * * * * * * * * * * * * * * * * //

dimensions      [0 2 -2 0 0 0 0];

internalField   nonuniform List<scalar> 
100
(
5.95678e+07
5.95678e+07
5.95678e+07
5.95678e+07
5.95678e+07
5.95678e+07
5.95678e+07
5.95678e+07
5.95678e+07
5.95678e+07
5.95678e+07
5.95678e+07
5.95678e+07
5.95678e+07
5.95678e+07
5.95678e+07
5.95678e+07
5.95679e+07
5.95679e+07
5.9568e+07
5.95689e+07
5.95796e+07
5.9701e+07
6.11683e+07
7.52679e+07
1.28792e+08
2.02859e+08
2.61482e+08
3.01701e+08
3.34757e+08
3.72158e+08
4.22311e+08
4.91863e+08
5.87034e+08
7.14554e+08
8.82034e+08
1.09811e+09
1.37245e+09
1.71555e+09
2.13825e+09
2.65153e+09
3.26672e+09
3.99542e+09
4.84844e+09
5.83442e+09
6.95911e+09
8.23267e+09
9.84237e+09
1.202e+10
1.45232e+10
1.70715e+10
1.95935e+10
2.20588e+10
2.44456e+10
2.67348e+10
2.89095e+10
3.09557e+10
3.28627e+10
3.46238e+10
3.62358e+10
3.76989e+10
3.90159e+10
4.01916e+10
4.12328e+10
4.21475e+10
4.29446e+10
4.36341e+10
4.42262e+10
4.47314e+10
4.51598e+10
4.5521e+10
4.58241e+10
4.60775e+10
4.62886e+10
4.64642e+10
4.66104e+10
4.67325e+10
4.6835e+10
4.69219e+10
4.69966e+10
4.70619e+10
4.71201e+10
4.71733e+10
4.72227e+10
4.72698e+10
4.73155e+10
4.73606e+10
4.74056e+10
4.74512e+10
4.74977e+10
4.75456e+10
4.7595e+10
4.76463e+10
4.76996e+10
4.7755e+10
4.78126e+10
4.78723e+10
4.7934e+10
4.7997e+10
4.80552e+10
)
;

boundaryField
{
    sides
    {
        type            zeroGradient;
    }
    empty
    {
        type            empty;
    }
}


// ************************************************************************* //
