/*--------------------------------*- C++ -*----------------------------------*\
| =========                 |                                                 |
| \\      /  F ield         | OpenFOAM: The Open Source CFD Toolbox           |
|  \\    /   O peration     | Version:  2312                                  |
|   \\  /    A nd           | Website:  www.openfoam.com                      |
|    \\/     M anipulation  |                                                 |
\*---------------------------------------------------------------------------*/
FoamFile
{
    version     2.0;
    format      ascii;
    arch        "LSB;label=32;scalar=64";
    class       volVectorField;
    location    "7e-05";
    object      U;
}
// * * * * * * * * * * * * * * * * * * * * * * * * * * * * * * * * * * * * * //

dimensions      [0 1 -1 0 0 0 0];

internalField   nonuniform List<vector> 
100
(
(2.00921e-16 0 0)
(3.1569e-16 0 0)
(1.44297e-16 0 0)
(-2.54906e-16 0 0)
(-4.06002e-16 0 0)
(2.00921e-16 0 0)
(3.1569e-16 0 0)
(1.83604e-16 0 0)
(-3.54997e-16 0 0)
(-1.08779e-16 0 0)
(4.71729e-16 0 0)
(-7.10009e-17 0 0)
(0 0 0)
(2.28063e-16 0 0)
(-1.57063e-16 0 0)
(-7.8144e-17 0 0)
(7.14308e-18 0 0)
(0 0 0)
(2.28063e-16 0 0)
(-1.57063e-16 0 0)
(0 0 0)
(-7.10009e-17 0 0)
(0 0 0)
(2.28063e-16 0 0)
(-2.35207e-16 0 0)
(1.32775e-18 0 0)
(-3.08639e-16 0 0)
(1.49241e-16 0 0)
(3.93277e-16 0 0)
(5.30473e-17 0 0)
(-8.63829e-17 0 0)
(0 0 0)
(0 0 0)
(2.53083e-17 0 0)
(1.04148e-16 0 0)
(-1.29457e-16 0 0)
(0 0 0)
(0 0 0)
(2.53083e-17 0 0)
(-1.25816e-16 0 0)
(-1.35109e-14 0 0)
(-3.9255e-11 0 0)
(-9.53022e-08 0 0)
(-0.00021925 0 0)
(-0.12983 0 0)
(-1.6337 0 0)
(-7.95948 0 0)
(-26.5361 0 0)
(-51.6169 0 0)
(-16.9258 0 0)
(95.4296 0 0)
(26.3128 0 0)
(1.99731 0 0)
(0.104117 0 0)
(0.00395997 0 0)
(0.000118263 0 0)
(2.8162e-06 0 0)
(5.45625e-08 0 0)
(8.69707e-10 0 0)
(1.14189e-11 0 0)
(1.73003e-13 0 0)
(2.88219e-13 0 0)
(0 0 0)
(0 0 0)
(-6.67453e-14 0 0)
(-2.47508e-13 0 0)
(3.14253e-13 0 0)
(0 0 0)
(0 0 0)
(-5.08067e-14 0 0)
(-2.88219e-13 0 0)
(4.3151e-13 0 0)
(2.94244e-13 0 0)
(7.53183e-14 0 0)
(-2.08991e-13 0 0)
(-5.92081e-13 0 0)
(2.47393e-13 0 0)
(0 0 0)
(4.92708e-13 0 0)
(-1.4802e-13 0 0)
(-5.92081e-13 0 0)
(3.2463e-13 0 0)
(-7.72373e-14 0 0)
(4.92708e-13 0 0)
(-1.4802e-13 0 0)
(-5.92081e-13 0 0)
(3.2463e-13 0 0)
(-6.4926e-14 0 0)
(4.80397e-13 0 0)
(3.98007e-13 0 0)
(-6.63507e-13 0 0)
(-5.387e-13 0 0)
(5.76089e-13 0 0)
(5.77528e-13 0 0)
(-8.41088e-14 0 0)
(-6.33091e-13 0 0)
(-4.50178e-13 0 0)
(5.89849e-13 0 0)
(5.77528e-13 0 0)
(-8.41088e-14 0 0)
)
;

boundaryField
{
    sides
    {
        type            zeroGradient;
    }
    empty
    {
        type            empty;
    }
}


// ************************************************************************* //
