/*--------------------------------*- C++ -*----------------------------------*\
| =========                 |                                                 |
| \\      /  F ield         | OpenFOAM: The Open Source CFD Toolbox           |
|  \\    /   O peration     | Version:  2312                                  |
|   \\  /    A nd           | Website:  www.openfoam.com                      |
|    \\/     M anipulation  |                                                 |
\*---------------------------------------------------------------------------*/
FoamFile
{
    version     2.0;
    format      ascii;
    arch        "LSB;label=32;scalar=64";
    class       volVectorField;
    location    "7e-05";
    object      U;
}
// * * * * * * * * * * * * * * * * * * * * * * * * * * * * * * * * * * * * * //

dimensions      [0 1 -1 0 0 0 0];

internalField   nonuniform List<vector> 
100
(
(2.29206e-11 0 0)
(1.68043e-11 0 0)
(2.26649e-12 0 0)
(-1.13729e-11 0 0)
(-9.28568e-12 0 0)
(9.56928e-12 0 0)
(1.39821e-11 0 0)
(7.94789e-12 0 0)
(2.601e-13 0 0)
(-2.44397e-12 0 0)
(-9.81367e-12 0 0)
(-9.83287e-11 0 0)
(-1.06765e-09 0 0)
(-1.20322e-08 0 0)
(-1.34675e-07 0 0)
(-1.49216e-06 0 0)
(-1.63731e-05 0 0)
(-0.000178045 0 0)
(-0.00191994 0 0)
(-0.0205432 0 0)
(-0.218219 0 0)
(-2.30126 0 0)
(-23.9687 0 0)
(-233.541 0 0)
(-1640.03 0 0)
(-5832.04 0 0)
(-11272.5 0 0)
(-15516.4 0 0)
(-17984.7 0 0)
(-19078.2 0 0)
(-19399.3 0 0)
(-19424.6 0 0)
(-19386.6 0 0)
(-19348.6 0 0)
(-19316.3 0 0)
(-19285.6 0 0)
(-19255.3 0 0)
(-19227.5 0 0)
(-19202.4 0 0)
(-19174.3 0 0)
(-19134.8 0 0)
(-19086.8 0 0)
(-19047.2 0 0)
(-19031.9 0 0)
(-19042.2 0 0)
(-19060.7 0 0)
(-18878.6 0 0)
(-15282.1 0 0)
(-11164.6 0 0)
(-10613.2 0 0)
(-10580.5 0 0)
(-10578 0 0)
(-10535.9 0 0)
(-10456.4 0 0)
(-10356.4 0 0)
(-10254.9 0 0)
(-10164.2 0 0)
(-10087.5 0 0)
(-10019.6 0 0)
(-9951.86 0 0)
(-9876.89 0 0)
(-9790.96 0 0)
(-9694.3 0 0)
(-9589.46 0 0)
(-9479.34 0 0)
(-9365.74 0 0)
(-9248.86 0 0)
(-9127.5 0 0)
(-8999.76 0 0)
(-8863.74 0 0)
(-8717.99 0 0)
(-8561.64 0 0)
(-8394.25 0 0)
(-8215.51 0 0)
(-8024.92 0 0)
(-7821.64 0 0)
(-7604.41 0 0)
(-7371.65 0 0)
(-7121.55 0 0)
(-6852.23 0 0)
(-6561.78 0 0)
(-6248.28 0 0)
(-5909.8 0 0)
(-5544.38 0 0)
(-5150.03 0 0)
(-4724.77 0 0)
(-4266.77 0 0)
(-3774.48 0 0)
(-3246.79 0 0)
(-2683.1 0 0)
(-2083.47 0 0)
(-1448.55 0 0)
(-779.564 0 0)
(-78.2308 0 0)
(653.368 0 0)
(1412.86 0 0)
(2197.56 0 0)
(3003.8 0 0)
(3820.37 0 0)
(4569.66 0 0)
)
;

boundaryField
{
    sides
    {
        type            zeroGradient;
    }
    empty
    {
        type            empty;
    }
}


// ************************************************************************* //
