/*--------------------------------*- C++ -*----------------------------------*\
| =========                 |                                                 |
| \\      /  F ield         | OpenFOAM: The Open Source CFD Toolbox           |
|  \\    /   O peration     | Version:  2312                                  |
|   \\  /    A nd           | Website:  www.openfoam.com                      |
|    \\/     M anipulation  |                                                 |
\*---------------------------------------------------------------------------*/
FoamFile
{
    version     2.0;
    format      ascii;
    arch        "LSB;label=32;scalar=64";
    class       volScalarField;
    location    "0.064";
    object      thermo:e;
}
// * * * * * * * * * * * * * * * * * * * * * * * * * * * * * * * * * * * * * //

dimensions      [0 2 -2 0 0 0 0];

internalField   nonuniform List<scalar> 
100
(
163920
162473
162668
161169
161215
160227
159693
159697
158053
159539
156301
159638
154530
159800
152911
159794
151638
159415
150852
158565
150563
157306
150638
155829
150859
154366
151027
153092
151036
152083
150886
151330
150640
150789
150378
150415
150160
150177
150022
150055
149972
150033
150002
150090
150095
150199
150223
150332
150362
150464
150486
150572
150577
150641
150627
150669
150643
150681
150676
150776
150915
151284
151891
152960
154442
156342
158301
160129
161506
162495
163028
163328
163360
163325
163144
162971
162702
162466
162155
161884
161548
161253
160900
160593
160235
159929
159579
159290
158960
158704
158408
158196
157945
157781
157583
157464
157324
157239
157164
157100
)
;

boundaryField
{
    sides
    {
        type            zeroGradient;
    }
    empty
    {
        type            empty;
    }
}


// ************************************************************************* //
