/*--------------------------------*- C++ -*----------------------------------*\
| =========                 |                                                 |
| \\      /  F ield         | OpenFOAM: The Open Source CFD Toolbox           |
|  \\    /   O peration     | Version:  2312                                  |
|   \\  /    A nd           | Website:  www.openfoam.com                      |
|    \\/     M anipulation  |                                                 |
\*---------------------------------------------------------------------------*/
FoamFile
{
    version     2.0;
    format      ascii;
    arch        "LSB;label=32;scalar=64";
    class       volScalarField;
    location    "0.053";
    object      p;
}
// * * * * * * * * * * * * * * * * * * * * * * * * * * * * * * * * * * * * * //

dimensions      [1 -1 -2 0 0 0 0];

internalField   nonuniform List<scalar> 
100
(
30786.5
30658.8
30473.1
30285.4
30103.3
29914
29740
29544.6
29385.4
29175.5
29042.3
28805
28712.1
28434.3
28392.8
28068.6
28077.5
27718.9
27754.4
27399
27410.7
27121.4
27037.1
26893.1
26630.8
26714.4
26196.6
26576.8
25749.3
26461.1
25316.1
26336.5
24933.4
26167.6
24635.2
25929.3
24437.7
25621.4
24329.2
25272
24275.4
24924.5
24236.9
24618.1
24187.6
24373.8
24121.5
24193
24048.1
24066.7
23981.8
23984
23934
23937.2
23910.5
23921.2
23912.1
23932
23937
23965.4
23981.5
24017.1
24041.8
24083.6
24115.8
24165.1
24208.6
24275.5
24352
24481.5
24678
25027.5
25594.2
26483.9
27688.5
29128.8
30580.2
31872.2
32866.6
33585.5
34052
34366
34555.7
34693
34775.2
34847.6
34891.8
34940.9
34971.6
35011.7
35037.1
35073
35096.1
35129.6
35151.5
35183.2
35204.2
35234.5
35254.6
35280.2
)
;

boundaryField
{
    sides
    {
        type            zeroGradient;
    }
    empty
    {
        type            empty;
    }
}


// ************************************************************************* //
