/*--------------------------------*- C++ -*----------------------------------*\
| =========                 |                                                 |
| \\      /  F ield         | OpenFOAM: The Open Source CFD Toolbox           |
|  \\    /   O peration     | Version:  2312                                  |
|   \\  /    A nd           | Website:  www.openfoam.com                      |
|    \\/     M anipulation  |                                                 |
\*---------------------------------------------------------------------------*/
FoamFile
{
    version     2.0;
    format      ascii;
    arch        "LSB;label=32;scalar=64";
    class       volScalarField;
    location    "0.053";
    object      T;
}
// * * * * * * * * * * * * * * * * * * * * * * * * * * * * * * * * * * * * * //

dimensions      [0 0 0 1 0 0 0];

internalField   nonuniform List<scalar> 
100
(
227.148
226.798
226.228
225.643
225.104
224.509
224.043
223.414
223.089
222.372
222.298
221.404
221.71
220.544
221.328
219.845
221.087
219.379
220.855
219.215
220.465
219.392
219.767
219.899
218.664
220.677
217.14
221.611
215.292
222.505
213.348
223.076
211.639
223.023
210.478
222.152
210.007
220.503
210.117
218.356
210.498
216.104
210.81
214.074
210.836
212.421
210.538
211.127
210.001
210.095
209.34
209.222
208.642
208.441
207.948
207.715
207.272
207.024
206.611
206.356
205.964
205.706
205.331
205.079
204.725
204.491
204.174
203.989
203.759
203.717
203.743
204.15
204.931
206.466
208.643
211.467
214.325
216.969
218.94
220.409
221.283
221.91
222.216
222.486
222.586
222.734
222.771
222.88
222.9
222.997
223.013
223.103
223.12
223.205
223.223
223.305
223.322
223.402
223.419
223.503
)
;

boundaryField
{
    sides
    {
        type            zeroGradient;
    }
    empty
    {
        type            empty;
    }
}


// ************************************************************************* //
