/*--------------------------------*- C++ -*----------------------------------*\
| =========                 |                                                 |
| \\      /  F ield         | OpenFOAM: The Open Source CFD Toolbox           |
|  \\    /   O peration     | Version:  2312                                  |
|   \\  /    A nd           | Website:  www.openfoam.com                      |
|    \\/     M anipulation  |                                                 |
\*---------------------------------------------------------------------------*/
FoamFile
{
    version     2.0;
    format      ascii;
    arch        "LSB;label=32;scalar=64";
    class       volScalarField;
    location    "0.053";
    object      thermo:e;
}
// * * * * * * * * * * * * * * * * * * * * * * * * * * * * * * * * * * * * * //

dimensions      [0 2 -2 0 0 0 0];

internalField   nonuniform List<scalar> 
100
(
163365
163113
162703
162283
161895
161467
161132
160679
160446
159930
159876
159234
159454
158615
159179
158113
159006
157777
158839
157659
158558
157786
158056
158151
157263
158711
156167
159383
154838
160025
153440
160436
152211
160398
151375
159772
151037
158586
151116
157042
151390
155422
151614
153962
151633
152773
151419
151843
151032
151100
150557
150473
150055
149911
149556
149389
149070
148892
148595
148411
148129
147944
147674
147492
147238
147070
146842
146709
146543
146513
146532
146825
147387
148490
150056
152087
154143
156044
157462
158518
159147
159597
159818
160012
160084
160190
160217
160296
160310
160379
160391
160456
160468
160529
160542
160601
160614
160671
160683
160743
)
;

boundaryField
{
    sides
    {
        type            zeroGradient;
    }
    empty
    {
        type            empty;
    }
}


// ************************************************************************* //
