/*--------------------------------*- C++ -*----------------------------------*\
| =========                 |                                                 |
| \\      /  F ield         | OpenFOAM: The Open Source CFD Toolbox           |
|  \\    /   O peration     | Version:  2312                                  |
|   \\  /    A nd           | Website:  www.openfoam.com                      |
|    \\/     M anipulation  |                                                 |
\*---------------------------------------------------------------------------*/
FoamFile
{
    version     2.0;
    format      ascii;
    arch        "LSB;label=32;scalar=64";
    class       volVectorField;
    location    "0.053";
    object      U;
}
// * * * * * * * * * * * * * * * * * * * * * * * * * * * * * * * * * * * * * //

dimensions      [0 1 -1 0 0 0 0];

internalField   nonuniform List<vector> 
100
(
(169.576 0 0)
(170.86 0 0)
(172.422 0 0)
(173.981 0 0)
(175.551 0 0)
(177.101 0 0)
(178.674 0 0)
(180.208 0 0)
(181.791 0 0)
(183.298 0 0)
(184.901 0 0)
(186.375 0 0)
(187.999 0 0)
(189.447 0 0)
(191.082 0 0)
(192.531 0 0)
(194.145 0 0)
(195.642 0 0)
(197.187 0 0)
(198.788 0 0)
(200.213 0 0)
(201.963 0 0)
(203.234 0 0)
(205.153 0 0)
(206.257 0 0)
(208.334 0 0)
(209.291 0 0)
(211.478 0 0)
(212.351 0 0)
(214.546 0 0)
(215.449 0 0)
(217.505 0 0)
(218.588 0 0)
(220.35 0 0)
(221.736 0 0)
(223.11 0 0)
(224.829 0 0)
(225.835 0 0)
(227.794 0 0)
(228.56 0 0)
(230.58 0 0)
(231.277 0 0)
(233.177 0 0)
(233.935 0 0)
(235.607 0 0)
(236.466 0 0)
(237.886 0 0)
(238.813 0 0)
(240.015 0 0)
(240.945 0 0)
(241.974 0 0)
(242.851 0 0)
(243.742 0 0)
(244.535 0 0)
(245.307 0 0)
(246.008 0 0)
(246.676 0 0)
(247.287 0 0)
(247.866 0 0)
(248.4 0 0)
(248.904 0 0)
(249.372 0 0)
(249.814 0 0)
(250.224 0 0)
(250.602 0 0)
(250.935 0 0)
(251.2 0 0)
(251.344 0 0)
(251.265 0 0)
(250.76 0 0)
(249.475 0 0)
(246.864 0 0)
(242.286 0 0)
(235.354 0 0)
(226.394 0 0)
(216.57 0 0)
(207.366 0 0)
(199.889 0 0)
(194.506 0 0)
(191.013 0 0)
(188.945 0 0)
(187.839 0 0)
(187.337 0 0)
(187.195 0 0)
(187.264 0 0)
(187.449 0 0)
(187.699 0 0)
(187.98 0 0)
(188.278 0 0)
(188.579 0 0)
(188.881 0 0)
(189.179 0 0)
(189.472 0 0)
(189.757 0 0)
(190.038 0 0)
(190.312 0 0)
(190.581 0 0)
(190.844 0 0)
(191.106 0 0)
(191.316 0 0)
)
;

boundaryField
{
    sides
    {
        type            mywaveTransmissive;
        gamma           1.4;
        value           nonuniform List<vector> 2((191.41 0 0) (169.068 0 0));
    }
    empty
    {
        type            empty;
    }
}


// ************************************************************************* //
