/*--------------------------------*- C++ -*----------------------------------*\
| =========                 |                                                 |
| \\      /  F ield         | OpenFOAM: The Open Source CFD Toolbox           |
|  \\    /   O peration     | Version:  2312                                  |
|   \\  /    A nd           | Website:  www.openfoam.com                      |
|    \\/     M anipulation  |                                                 |
\*---------------------------------------------------------------------------*/
FoamFile
{
    version     2.0;
    format      ascii;
    arch        "LSB;label=32;scalar=64";
    class       volScalarField;
    location    "3e-05";
    object      p;
}
// * * * * * * * * * * * * * * * * * * * * * * * * * * * * * * * * * * * * * //

dimensions      [1 -1 -2 0 0 0 0];

internalField   nonuniform List<scalar> 
100
(
4.63368e+07
4.63368e+07
4.63368e+07
4.63368e+07
4.63368e+07
4.63368e+07
4.63368e+07
4.63368e+07
4.63368e+07
4.63368e+07
4.63368e+07
4.63368e+07
4.63368e+07
4.63368e+07
4.63368e+07
4.63368e+07
4.63368e+07
4.63368e+07
4.63368e+07
4.63368e+07
4.63368e+07
4.63368e+07
4.63368e+07
4.63368e+07
4.63368e+07
4.63368e+07
4.63368e+07
4.63368e+07
4.63368e+07
4.63368e+07
4.63368e+07
4.63369e+07
4.63376e+07
4.63474e+07
4.64762e+07
4.81209e+07
6.58692e+07
1.62412e+08
3.74762e+08
5.92355e+08
6.99575e+08
7.12802e+08
7.00748e+08
6.92362e+08
6.89613e+08
6.89555e+08
6.90502e+08
6.91788e+08
6.93154e+08
6.94653e+08
6.99648e+08
7.53079e+08
7.08218e+08
7.0389e+08
7.05813e+08
7.09194e+08
7.13323e+08
7.18168e+08
7.23799e+08
7.30302e+08
7.3776e+08
7.46249e+08
7.55837e+08
7.66575e+08
7.785e+08
7.91624e+08
8.05931e+08
8.21373e+08
8.37856e+08
8.55231e+08
8.73277e+08
8.91674e+08
9.09972e+08
9.27536e+08
9.43492e+08
9.56668e+08
9.65566e+08
9.68439e+08
9.63635e+08
9.50185e+08
9.28417e+08
9.00351e+08
8.6945e+08
8.39635e+08
8.14039e+08
7.94219e+08
7.80178e+08
7.70949e+08
7.6525e+08
7.61911e+08
7.60041e+08
7.59037e+08
7.58518e+08
7.58259e+08
7.58135e+08
7.58077e+08
7.58051e+08
7.5804e+08
7.58035e+08
7.58033e+08
)
;

boundaryField
{
    sides
    {
        type            zeroGradient;
    }
    empty
    {
        type            empty;
    }
}


// ************************************************************************* //
