/*--------------------------------*- C++ -*----------------------------------*\
| =========                 |                                                 |
| \\      /  F ield         | OpenFOAM: The Open Source CFD Toolbox           |
|  \\    /   O peration     | Version:  2312                                  |
|   \\  /    A nd           | Website:  www.openfoam.com                      |
|    \\/     M anipulation  |                                                 |
\*---------------------------------------------------------------------------*/
FoamFile
{
    version     2.0;
    format      ascii;
    arch        "LSB;label=32;scalar=64";
    class       volScalarField;
    location    "3e-05";
    object      p;
}
// * * * * * * * * * * * * * * * * * * * * * * * * * * * * * * * * * * * * * //

dimensions      [1 -1 -2 0 0 0 0];

internalField   nonuniform List<scalar> 
100
(
1263.19
1263.19
1263.19
1263.19
1263.19
1263.19
1263.19
1263.19
1263.19
1263.19
1263.19
1263.19
1263.19
1263.19
1263.19
1263.19
1263.19
1263.19
1263.19
1263.19
1263.19
1263.19
1263.19
1263.19
1263.19
1263.19
1263.19
1263.19
1263.19
1263.19
1263.19
1263.19
1263.19
1263.19
1263.19
1263.19
1263.19
1263.19
1263.19
1263.19
1263.19
1263.19
1263.19
1263.19
1263.2
1318.38
5648.82
26716.3
95714.1
205425
148562
142137
141902
141894
141894
141894
141894
141894
141894
141894
141894
141894
141894
141894
141894
141894
141894
141894
141894
141894
141894
141894
141894
141894
141894
141894
141894
141894
141894
141894
141894
141894
141894
141894
141894
141894
141894
141894
141894
141894
141894
141894
141894
141894
141894
141894
141894
141894
141894
141894
)
;

boundaryField
{
    sides
    {
        type            zeroGradient;
    }
    empty
    {
        type            empty;
    }
}


// ************************************************************************* //
