/*--------------------------------*- C++ -*----------------------------------*\
| =========                 |                                                 |
| \\      /  F ield         | OpenFOAM: The Open Source CFD Toolbox           |
|  \\    /   O peration     | Version:  2312                                  |
|   \\  /    A nd           | Website:  www.openfoam.com                      |
|    \\/     M anipulation  |                                                 |
\*---------------------------------------------------------------------------*/
FoamFile
{
    version     2.0;
    format      ascii;
    arch        "LSB;label=32;scalar=64";
    class       volScalarField;
    location    "3e-05";
    object      rho;
}
// * * * * * * * * * * * * * * * * * * * * * * * * * * * * * * * * * * * * * //

dimensions      [1 -3 0 0 0 0 0];

internalField   nonuniform List<scalar> 
100
(
1.16102
1.16102
1.16102
1.16102
1.16102
1.16102
1.16102
1.16102
1.16102
1.16102
1.16102
1.16102
1.16102
1.16102
1.16102
1.16102
1.16102
1.16102
1.16102
1.16102
1.16102
1.16102
1.16102
1.16102
1.16102
1.16102
1.16102
1.16102
1.16102
1.16102
1.16102
1.16102
1.16103
1.16117
1.1629
1.18069
1.30165
1.67855
2.17244
2.38333
2.15063
1.70131
1.2735
0.937431
0.688617
0.508243
0.378656
0.285703
0.218779
0.170285
0.135294
0.115343
0.108472
0.10781
0.108104
0.108622
0.109254
0.109996
0.110859
0.111855
0.112997
0.114297
0.115766
0.117411
0.119237
0.121247
0.123438
0.125804
0.128328
0.130989
0.133753
0.136571
0.139374
0.142064
0.144508
0.146526
0.147888
0.148328
0.147593
0.145533
0.142199
0.1379
0.133167
0.128601
0.12468
0.121644
0.119494
0.11808
0.117207
0.116696
0.11641
0.116256
0.116176
0.116137
0.116118
0.116109
0.116105
0.116103
0.116102
0.116102
)
;

boundaryField
{
    sides
    {
        type            zeroGradient;
    }
    empty
    {
        type            empty;
    }
}


// ************************************************************************* //
