/*--------------------------------*- C++ -*----------------------------------*\
| =========                 |                                                 |
| \\      /  F ield         | OpenFOAM: The Open Source CFD Toolbox           |
|  \\    /   O peration     | Version:  2312                                  |
|   \\  /    A nd           | Website:  www.openfoam.com                      |
|    \\/     M anipulation  |                                                 |
\*---------------------------------------------------------------------------*/
FoamFile
{
    version     2.0;
    format      ascii;
    arch        "LSB;label=32;scalar=64";
    class       volScalarField;
    location    "3e-05";
    object      thermo:e;
}
// * * * * * * * * * * * * * * * * * * * * * * * * * * * * * * * * * * * * * //

dimensions      [0 2 -2 0 0 0 0];

internalField   nonuniform List<scalar> 
100
(
5.95678e+07
5.95678e+07
5.95678e+07
5.95678e+07
5.95678e+07
5.95678e+07
5.95678e+07
5.95678e+07
5.95678e+07
5.95678e+07
5.95678e+07
5.95678e+07
5.95678e+07
5.95678e+07
5.95678e+07
5.95678e+07
5.95678e+07
5.95678e+07
5.95678e+07
5.95678e+07
5.95678e+07
5.95678e+07
5.95678e+07
5.95678e+07
5.95678e+07
5.95678e+07
5.95678e+07
5.95678e+07
5.95678e+07
5.95679e+07
5.95679e+07
5.95679e+07
5.95683e+07
5.95736e+07
5.96505e+07
6.08307e+07
7.55288e+07
1.44414e+08
2.57474e+08
3.70957e+08
4.85506e+08
6.25331e+08
8.21274e+08
1.10235e+09
1.4947e+09
2.02499e+09
2.72173e+09
3.61397e+09
4.72879e+09
6.0886e+09
7.71841e+09
9.86842e+09
1.2874e+10
1.63742e+10
1.99148e+10
2.33644e+10
2.6653e+10
2.97313e+10
3.2564e+10
3.51287e+10
3.74156e+10
3.94255e+10
4.11681e+10
4.26603e+10
4.39236e+10
4.49825e+10
4.58625e+10
4.65887e+10
4.71851e+10
4.76733e+10
4.80726e+10
4.8399e+10
4.86653e+10
4.88811e+10
4.90518e+10
4.91794e+10
4.92617e+10
4.92929e+10
4.92658e+10
4.91749e+10
4.90206e+10
4.88139e+10
4.85772e+10
4.83402e+10
4.81304e+10
4.79641e+10
4.78447e+10
4.77656e+10
4.77166e+10
4.76878e+10
4.76717e+10
4.7663e+10
4.76585e+10
4.76563e+10
4.76552e+10
4.76547e+10
4.76545e+10
4.76544e+10
4.76544e+10
4.76544e+10
)
;

boundaryField
{
    sides
    {
        type            zeroGradient;
    }
    empty
    {
        type            empty;
    }
}


// ************************************************************************* //
