/*--------------------------------*- C++ -*----------------------------------*\
| =========                 |                                                 |
| \\      /  F ield         | OpenFOAM: The Open Source CFD Toolbox           |
|  \\    /   O peration     | Version:  2312                                  |
|   \\  /    A nd           | Website:  www.openfoam.com                      |
|    \\/     M anipulation  |                                                 |
\*---------------------------------------------------------------------------*/
FoamFile
{
    version     2.0;
    format      ascii;
    arch        "LSB;label=32;scalar=64";
    class       volScalarField;
    location    "3e-05";
    object      thermo:e;
}
// * * * * * * * * * * * * * * * * * * * * * * * * * * * * * * * * * * * * * //

dimensions      [0 2 -2 0 0 0 0];

internalField   nonuniform List<scalar> 
100
(
3.76955e+16
3.76955e+16
3.76955e+16
3.76955e+16
3.76955e+16
3.76955e+16
3.76955e+16
3.76955e+16
3.76955e+16
3.76955e+16
3.76955e+16
3.76955e+16
3.76955e+16
3.76955e+16
3.76955e+16
3.76955e+16
3.76955e+16
3.76955e+16
3.76955e+16
3.76955e+16
3.76955e+16
3.76955e+16
3.76955e+16
3.76955e+16
3.76955e+16
3.76955e+16
3.76955e+16
3.76955e+16
3.76955e+16
3.76955e+16
3.76955e+16
3.76955e+16
3.76955e+16
3.76955e+16
3.76955e+16
3.76955e+16
3.76955e+16
3.76955e+16
3.76955e+16
3.76955e+16
3.76955e+16
3.76955e+16
3.76955e+16
3.76955e+16
3.76963e+16
4.56027e+16
2.97697e+19
3.01569e+22
8.88574e+24
1.1674e+27
2.34019e+29
3.19752e+29
3.22256e+29
3.22284e+29
3.22284e+29
3.22284e+29
3.22284e+29
3.22284e+29
3.22284e+29
3.22284e+29
3.22284e+29
3.22284e+29
3.22284e+29
3.22284e+29
3.22284e+29
3.22284e+29
3.22284e+29
3.22284e+29
3.22284e+29
3.22284e+29
3.22284e+29
3.22284e+29
3.22284e+29
3.22284e+29
3.22284e+29
3.22284e+29
3.22284e+29
3.22284e+29
3.22284e+29
3.22284e+29
3.22284e+29
3.22284e+29
3.22284e+29
3.22284e+29
3.22284e+29
3.22284e+29
3.22284e+29
3.22284e+29
3.22284e+29
3.22284e+29
3.22284e+29
3.22284e+29
3.22284e+29
3.22284e+29
3.22284e+29
3.22284e+29
3.22284e+29
3.22284e+29
3.22284e+29
3.22284e+29
)
;

boundaryField
{
    sides
    {
        type            zeroGradient;
    }
    empty
    {
        type            empty;
    }
}


// ************************************************************************* //
