/*--------------------------------*- C++ -*----------------------------------*\
| =========                 |                                                 |
| \\      /  F ield         | OpenFOAM: The Open Source CFD Toolbox           |
|  \\    /   O peration     | Version:  2312                                  |
|   \\  /    A nd           | Website:  www.openfoam.com                      |
|    \\/     M anipulation  |                                                 |
\*---------------------------------------------------------------------------*/
FoamFile
{
    version     2.0;
    format      ascii;
    arch        "LSB;label=32;scalar=64";
    class       volVectorField;
    location    "3e-05";
    object      U;
}
// * * * * * * * * * * * * * * * * * * * * * * * * * * * * * * * * * * * * * //

dimensions      [0 1 -1 0 0 0 0];

internalField   nonuniform List<vector> 
100
(
(2.60702e-13 0 0)
(-1.58426e-12 0 0)
(2.07259e-12 0 0)
(1.68453e-12 0 0)
(-2.17286e-12 0 0)
(-2.0054e-14 0 0)
(-1.60432e-12 0 0)
(1.93221e-12 0 0)
(7.1966e-13 0 0)
(-4.532e-12 0 0)
(-7.95674e-13 0 0)
(2.06642e-12 0 0)
(-1.13032e-12 0 0)
(-2.91065e-12 0 0)
(-1.60388e-12 0 0)
(1.00057e-12 0 0)
(3.69828e-12 0 0)
(-2.84019e-13 0 0)
(-2.831e-12 0 0)
(-1.58382e-12 0 0)
(1.02062e-12 0 0)
(3.6977e-12 0 0)
(-3.25967e-13 0 0)
(-5.25998e-12 0 0)
(-2.45955e-11 0 0)
(-4.21928e-10 0 0)
(-7.13198e-09 0 0)
(-1.15869e-07 0 0)
(-1.82268e-06 0 0)
(-2.77916e-05 0 0)
(-0.000411021 0 0)
(-0.00590029 0 0)
(-0.0822753 0 0)
(-1.11506 0 0)
(-14.6436 0 0)
(-177.623 0 0)
(-1512.77 0 0)
(-6050.02 0 0)
(-12264.5 0 0)
(-17103.7 0 0)
(-19652.2 0 0)
(-20230.4 0 0)
(-19939 0 0)
(-19588 0 0)
(-19354.6 0 0)
(-19192.2 0 0)
(-19057.8 0 0)
(-18932.8 0 0)
(-18808 0 0)
(-18664.5 0 0)
(-18186.1 0 0)
(-13007.6 0 0)
(-6969.86 0 0)
(-5800.84 0 0)
(-5339.96 0 0)
(-4933.62 0 0)
(-4475.93 0 0)
(-3944.22 0 0)
(-3328.13 0 0)
(-2619.7 0 0)
(-1812.28 0 0)
(-900.634 0 0)
(118.705 0 0)
(1247.11 0 0)
(2483.51 0 0)
(3824.01 0 0)
(5261.6 0 0)
(6785.79 0 0)
(8382.13 0 0)
(10031.6 0 0)
(11709.6 0 0)
(13384.4 0 0)
(15014.7 0 0)
(16546.2 0 0)
(17908.1 0 0)
(19007.8 0 0)
(19729.2 0 0)
(19936.3 0 0)
(19497.4 0 0)
(18324.9 0 0)
(16421.1 0 0)
(13919.2 0 0)
(11085.8 0 0)
(8261.88 0 0)
(5759.38 0 0)
(3767.8 0 0)
(2326.73 0 0)
(1365.27 0 0)
(765.745 0 0)
(412.399 0 0)
(213.928 0 0)
(107.096 0 0)
(51.7976 0 0)
(24.2167 0 0)
(10.9469 0 0)
(4.78462 0 0)
(2.02191 0 0)
(0.826006 0 0)
(0.326344 0 0)
(0.128415 0 0)
)
;

boundaryField
{
    sides
    {
        type            zeroGradient;
    }
    empty
    {
        type            empty;
    }
}


// ************************************************************************* //
