/*--------------------------------*- C++ -*----------------------------------*\
| =========                 |                                                 |
| \\      /  F ield         | OpenFOAM: The Open Source CFD Toolbox           |
|  \\    /   O peration     | Version:  2312                                  |
|   \\  /    A nd           | Website:  www.openfoam.com                      |
|    \\/     M anipulation  |                                                 |
\*---------------------------------------------------------------------------*/
FoamFile
{
    version     2.0;
    format      ascii;
    arch        "LSB;label=32;scalar=64";
    class       volVectorField;
    location    "3e-05";
    object      U;
}
// * * * * * * * * * * * * * * * * * * * * * * * * * * * * * * * * * * * * * //

dimensions      [0 1 -1 0 0 0 0];

internalField   nonuniform List<vector> 
100
(
(4.42494e-17 0 0)
(1.59018e-16 0 0)
(8.55452e-17 0 0)
(-1.2761e-16 0 0)
(-1.61203e-16 0 0)
(4.42494e-17 0 0)
(1.59018e-16 0 0)
(9.5476e-17 0 0)
(-1.68949e-16 0 0)
(-5.0027e-17 0 0)
(8.00498e-17 0 0)
(7.33493e-18 0 0)
(0 0 0)
(-6.94403e-18 0 0)
(-3.90896e-19 0 0)
(1.91851e-19 0 0)
(7.14308e-18 0 0)
(0 0 0)
(-6.94403e-18 0 0)
(-3.90896e-19 0 0)
(0 0 0)
(7.33493e-18 0 0)
(0 0 0)
(-6.94403e-18 0 0)
(-1.99045e-19 0 0)
(6.98716e-17 0 0)
(-1.03008e-16 0 0)
(-4.65984e-17 0 0)
(7.99335e-17 0 0)
(7.26313e-17 0 0)
(1.48625e-16 0 0)
(0 0 0)
(0 0 0)
(-7.26115e-17 0 0)
(-3.29394e-17 0 0)
(1.05551e-16 0 0)
(0 0 0)
(0 0 0)
(-7.26115e-17 0 0)
(-1.454e-16 0 0)
(2.03749e-18 0 0)
(-2.93704e-15 0 0)
(-1.99787e-11 0 0)
(-1.06322e-07 0 0)
(-0.000607655 0 0)
(-0.178407 0 0)
(-1.67206 0 0)
(-7.91001 0 0)
(-23.5136 0 0)
(-10.7169 0 0)
(50.6637 0 0)
(5.39513 0 0)
(0.142513 0 0)
(0.00290607 0 0)
(4.12909e-05 0 0)
(4.51517e-07 0 0)
(3.81875e-09 0 0)
(2.54017e-11 0 0)
(4.2125e-15 0 0)
(2.57655e-14 0 0)
(-4.00702e-14 0 0)
(-6.27252e-14 0 0)
(0 0 0)
(0 0 0)
(5.8592e-14 0 0)
(3.16699e-15 0 0)
(-6.1759e-14 0 0)
(0 0 0)
(0 0 0)
(7.45306e-14 0 0)
(6.27252e-14 0 0)
(8.05657e-14 0 0)
(1.56373e-13 0 0)
(1.00386e-13 0 0)
(-1.46323e-13 0 0)
(-1.91001e-13 0 0)
(-5.34168e-14 0 0)
(0 0 0)
(2.92169e-13 0 0)
(-4.77504e-14 0 0)
(-1.91001e-13 0 0)
(-5.13819e-14 0 0)
(-2.03492e-15 0 0)
(2.92169e-13 0 0)
(-4.77504e-14 0 0)
(-1.91001e-13 0 0)
(-5.13819e-14 0 0)
(1.02764e-14 0 0)
(2.79857e-13 0 0)
(7.21298e-14 0 0)
(-2.49893e-13 0 0)
(-1.50154e-13 0 0)
(2.50212e-13 0 0)
(1.38847e-13 0 0)
(-8.41088e-14 0 0)
(-1.9441e-13 0 0)
(-9.92333e-14 0 0)
(2.38905e-13 0 0)
(1.38847e-13 0 0)
(-8.41088e-14 0 0)
)
;

boundaryField
{
    sides
    {
        type            zeroGradient;
    }
    empty
    {
        type            empty;
    }
}


// ************************************************************************* //
