/*--------------------------------*- C++ -*----------------------------------*\
| =========                 |                                                 |
| \\      /  F ield         | OpenFOAM: The Open Source CFD Toolbox           |
|  \\    /   O peration     | Version:  2212                                  |
|   \\  /    A nd           | Website:  www.openfoam.com                      |
|    \\/     M anipulation  |                                                 |
\*---------------------------------------------------------------------------*/
FoamFile
{
    version     2.0;
    format      ascii;
    arch        "LSB;label=32;scalar=64";
    class       volScalarField;
    location    "0.001";
    object      p;
}
// * * * * * * * * * * * * * * * * * * * * * * * * * * * * * * * * * * * * * //

dimensions      [1 -1 -2 0 0 0 0];

internalField   nonuniform List<scalar> 
100
(
99185.7
99185.7
99185.7
99185.7
99185.7
99185.7
99185.7
99185.7
99185.7
99185.7
99185.7
99185.7
99185.7
99185.7
99185.7
99185.7
99185.7
99185.7
99185.7
99185.7
99185.7
99185.7
99185.7
99185.7
99185.7
99185.7
99185.7
99185.7
99185.7
99185.7
99185.7
99185.7
99185.7
99185.7
99185.7
99185.7
99185.7
99185.7
99185.7
99185.7
99185.7
99185.7
99184.8
99151.6
98657.2
95533
86493.5
72025.7
55471.3
45907.8
33210.1
26187.7
26164.7
30921.4
28489.7
15970.1
10250.1
9923.8
9918.56
9918.52
9918.52
9918.52
9918.52
9918.52
9918.52
9918.52
9918.52
9918.52
9918.52
9918.52
9918.52
9918.52
9918.52
9918.52
9918.52
9918.52
9918.52
9918.52
9918.52
9918.52
9918.52
9918.52
9918.52
9918.52
9918.52
9918.52
9918.52
9918.52
9918.52
9918.52
9918.52
9918.52
9918.52
9918.52
9918.52
9918.52
9918.52
9918.52
9918.52
9918.52
)
;

boundaryField
{
    sides
    {
        type            zeroGradient;
    }
    empty
    {
        type            empty;
    }
}


// ************************************************************************* //
