/*--------------------------------*- C++ -*----------------------------------*\
| =========                 |                                                 |
| \\      /  F ield         | OpenFOAM: The Open Source CFD Toolbox           |
|  \\    /   O peration     | Version:  2312                                  |
|   \\  /    A nd           | Website:  www.openfoam.com                      |
|    \\/     M anipulation  |                                                 |
\*---------------------------------------------------------------------------*/
FoamFile
{
    version     2.0;
    format      ascii;
    arch        "LSB;label=32;scalar=64";
    class       volScalarField;
    location    "0.001";
    object      p;
}
// * * * * * * * * * * * * * * * * * * * * * * * * * * * * * * * * * * * * * //

dimensions      [1 -1 -2 0 0 0 0];

internalField   nonuniform List<scalar> 
100
(
110318
110318
110318
110318
110318
110318
110318
110318
110318
110318
110318
110318
110318
110318
110318
110318
110318
110318
110318
110318
110318
110318
110318
110318
110318
110318
110318
110318
110318
110318
110318
110318
110318
110318
110318
110318
110318
110317
110315
110302
110245
110026
109342
107588
103906
97543.2
88358.6
77023.6
64756.9
52926.3
42730.1
35203.3
30999.6
28822.6
25883.9
20810.8
14899.1
10868.7
9327.11
8956.17
8887.38
8876.47
8874.96
8874.78
8874.76
8874.76
8874.76
8874.76
8874.76
8874.76
8874.76
8874.76
8874.76
8874.76
8874.76
8874.76
8874.76
8874.76
8874.76
8874.76
8874.76
8874.76
8874.76
8874.76
8874.76
8874.76
8874.76
8874.76
8874.76
8874.76
8874.76
8874.76
8874.76
8874.76
8874.76
8874.76
8874.76
8874.76
8874.76
8874.76
)
;

boundaryField
{
    sides
    {
        type            zeroGradient;
    }
    empty
    {
        type            empty;
    }
}


// ************************************************************************* //
