/*--------------------------------*- C++ -*----------------------------------*\
| =========                 |                                                 |
| \\      /  F ield         | OpenFOAM: The Open Source CFD Toolbox           |
|  \\    /   O peration     | Version:  2312                                  |
|   \\  /    A nd           | Website:  www.openfoam.com                      |
|    \\/     M anipulation  |                                                 |
\*---------------------------------------------------------------------------*/
FoamFile
{
    version     2.0;
    format      ascii;
    arch        "LSB;label=32;scalar=64";
    class       volScalarField;
    location    "0.001";
    object      rho;
}
// * * * * * * * * * * * * * * * * * * * * * * * * * * * * * * * * * * * * * //

dimensions      [1 -3 0 0 0 0 0];

internalField   nonuniform List<scalar> 
100
(
1.116
1.116
1.116
1.116
1.116
1.116
1.116
1.116
1.116
1.116
1.116
1.116
1.116
1.116
1.116
1.116
1.116
1.116
1.116
1.116
1.116
1.116
1.116
1.116
1.116
1.116
1.116
1.116
1.116
1.116
1.116
1.116
1.116
1.116
1.116
1.116
1.116
1.116
1.11598
1.11589
1.11547
1.11388
1.1089
1.09599
1.06839
1.01937
0.945781
0.850205
0.740205
0.626229
0.518964
0.428008
0.358711
0.306599
0.257795
0.206598
0.159096
0.127987
0.115503
0.112321
0.111713
0.111615
0.111602
0.1116
0.1116
0.1116
0.1116
0.1116
0.1116
0.1116
0.1116
0.1116
0.1116
0.1116
0.1116
0.1116
0.1116
0.1116
0.1116
0.1116
0.1116
0.1116
0.1116
0.1116
0.1116
0.1116
0.1116
0.1116
0.1116
0.1116
0.1116
0.1116
0.1116
0.1116
0.1116
0.1116
0.1116
0.1116
0.1116
0.1116
)
;

boundaryField
{
    sides
    {
        type            zeroGradient;
    }
    empty
    {
        type            empty;
    }
}


// ************************************************************************* //
