/*--------------------------------*- C++ -*----------------------------------*\
| =========                 |                                                 |
| \\      /  F ield         | OpenFOAM: The Open Source CFD Toolbox           |
|  \\    /   O peration     | Version:  2312                                  |
|   \\  /    A nd           | Website:  www.openfoam.com                      |
|    \\/     M anipulation  |                                                 |
\*---------------------------------------------------------------------------*/
FoamFile
{
    version     2.0;
    format      ascii;
    arch        "LSB;label=32;scalar=64";
    class       volScalarField;
    location    "0.001";
    object      thermo:e;
}
// * * * * * * * * * * * * * * * * * * * * * * * * * * * * * * * * * * * * * //

dimensions      [0 2 -2 0 0 0 0];

internalField   nonuniform List<scalar> 
100
(
213576
213576
213576
213576
213576
213576
213576
213576
213576
213576
213576
213576
213576
213576
213576
213576
213576
213576
213576
213576
213576
213576
213576
213576
213576
213576
213576
213576
213576
213576
213576
213576
213576
213576
213576
213576
213576
213576
213576
213573
213556
213487
213241
212542
210939
207957
203388
197493
190994
185094
181844
185630
202236
227082
247592
251389
237819
222369
215627
213956
213637
213585
213577
213576
213576
213576
213576
213576
213576
213576
213576
213576
213576
213576
213576
213576
213576
213576
213576
213576
213576
213576
213576
213576
213576
213576
213576
213576
213576
213576
213576
213576
213576
213576
213576
213576
213576
213576
213576
213576
)
;

boundaryField
{
    sides
    {
        type            zeroGradient;
    }
    empty
    {
        type            empty;
    }
}


// ************************************************************************* //
