/*--------------------------------*- C++ -*----------------------------------*\
| =========                 |                                                 |
| \\      /  F ield         | OpenFOAM: The Open Source CFD Toolbox           |
|  \\    /   O peration     | Version:  2312                                  |
|   \\  /    A nd           | Website:  www.openfoam.com                      |
|    \\/     M anipulation  |                                                 |
\*---------------------------------------------------------------------------*/
FoamFile
{
    version     2.0;
    format      ascii;
    arch        "LSB;label=32;scalar=64";
    class       volScalarField;
    location    "0.001";
    object      thermo:e;
}
// * * * * * * * * * * * * * * * * * * * * * * * * * * * * * * * * * * * * * //

dimensions      [0 2 -2 0 0 0 0];

internalField   nonuniform List<scalar> 
100
(
247130
247130
247130
247130
247130
247130
247130
247130
247130
247130
247130
247130
247130
247130
247130
247130
247130
247130
247130
247130
247130
247130
247130
247130
247130
247130
247130
247130
247130
247130
247130
247130
247130
247130
247130
247130
247130
247129
247128
247120
247083
246944
246513
245417
243139
239226
233562
226487
218715
211292
205846
205625
216051
235021
251015
251830
234125
212304
201883
199345
198892
198821
198811
198810
198810
198810
198810
198810
198810
198810
198810
198810
198810
198810
198810
198810
198810
198810
198810
198810
198810
198810
198810
198810
198810
198810
198810
198810
198810
198810
198810
198810
198810
198810
198810
198810
198810
198810
198810
198810
)
;

boundaryField
{
    sides
    {
        type            zeroGradient;
    }
    empty
    {
        type            empty;
    }
}


// ************************************************************************* //
