/*--------------------------------*- C++ -*----------------------------------*\
| =========                 |                                                 |
| \\      /  F ield         | OpenFOAM: The Open Source CFD Toolbox           |
|  \\    /   O peration     | Version:  2312                                  |
|   \\  /    A nd           | Website:  www.openfoam.com                      |
|    \\/     M anipulation  |                                                 |
\*---------------------------------------------------------------------------*/
FoamFile
{
    version     2.0;
    format      ascii;
    arch        "LSB;label=32;scalar=64";
    class       volVectorField;
    location    "0.001";
    object      U;
}
// * * * * * * * * * * * * * * * * * * * * * * * * * * * * * * * * * * * * * //

dimensions      [0 1 -1 0 0 0 0];

internalField   nonuniform List<vector> 
100
(
(-4.98013e-14 0 0)
(-3.44873e-14 0 0)
(-5.89195e-14 0 0)
(-4.60146e-14 0 0)
(-2.99071e-14 0 0)
(7.38954e-14 0 0)
(2.9825e-14 0 0)
(2.39397e-14 0 0)
(6.02743e-14 0 0)
(-8.37749e-14 0 0)
(-1.47163e-13 0 0)
(9.4617e-14 0 0)
(2.86168e-13 0 0)
(1.41066e-13 0 0)
(-2.0615e-13 0 0)
(-2.94753e-13 0 0)
(-3.31076e-14 0 0)
(7.28757e-14 0 0)
(1.20751e-13 0 0)
(-4.73039e-14 0 0)
(-1.17008e-13 0 0)
(-9.73913e-14 0 0)
(5.01835e-14 0 0)
(7.01793e-14 0 0)
(2.11651e-13 0 0)
(1.81078e-13 0 0)
(-4.59033e-14 0 0)
(-2.69219e-13 0 0)
(-2.66298e-13 0 0)
(6.95033e-13 0 0)
(1.71192e-11 0 0)
(3.59886e-10 0 0)
(6.46653e-09 0 0)
(9.82562e-08 0 0)
(1.26381e-06 0 0)
(1.37747e-05 0 0)
(0.000127295 0 0)
(0.000997431 0 0)
(0.00662203 0 0)
(0.0371948 0 0)
(0.176341 0 0)
(0.703759 0 0)
(2.35985 0 0)
(6.65736 0 0)
(15.9137 0 0)
(32.6917 0 0)
(58.862 0 0)
(94.933 0 0)
(139.906 0 0)
(191.238 0 0)
(243.167 0 0)
(284.663 0 0)
(305.515 0 0)
(303.291 0 0)
(275.147 0 0)
(213.522 0 0)
(125.604 0 0)
(48.1659 0 0)
(11.809 0 0)
(2.17473 0 0)
(0.338866 0 0)
(0.0461093 0 0)
(0.00548508 0 0)
(0.000567672 0 0)
(5.08286e-05 0 0)
(3.91709e-06 0 0)
(2.58656e-07 0 0)
(1.458e-08 0 0)
(6.99311e-10 0 0)
(2.83878e-11 0 0)
(1.00225e-12 0 0)
(6.71389e-14 0 0)
(1.13211e-14 0 0)
(-2.59169e-14 0 0)
(-4.2639e-14 0 0)
(8.32545e-14 0 0)
(1.66241e-13 0 0)
(3.32706e-15 0 0)
(-1.66375e-13 0 0)
(-1.27822e-14 0 0)
(3.79553e-14 0 0)
(1.4733e-13 0 0)
(-6.12805e-15 0 0)
(-1.66375e-13 0 0)
(-1.27822e-14 0 0)
(3.79553e-14 0 0)
(1.4733e-13 0 0)
(-1.55832e-14 0 0)
(-1.89464e-13 0 0)
(-7.86465e-14 0 0)
(-2.76565e-14 0 0)
(-4.19976e-15 0 0)
(3.47788e-15 0 0)
(-2.50323e-14 0 0)
(-2.68294e-14 0 0)
(3.78376e-15 0 0)
(4.33914e-14 0 0)
(4.38577e-14 0 0)
(-2.35903e-15 0 0)
(1.24936e-16 0 0)
)
;

boundaryField
{
    sides
    {
        type            zeroGradient;
    }
    empty
    {
        type            empty;
    }
}


// ************************************************************************* //
