/*--------------------------------*- C++ -*----------------------------------*\
| =========                 |                                                 |
| \\      /  F ield         | OpenFOAM: The Open Source CFD Toolbox           |
|  \\    /   O peration     | Version:  2212                                  |
|   \\  /    A nd           | Website:  www.openfoam.com                      |
|    \\/     M anipulation  |                                                 |
\*---------------------------------------------------------------------------*/
FoamFile
{
    version     2.0;
    format      ascii;
    arch        "LSB;label=32;scalar=64";
    class       volVectorField;
    location    "0.001";
    object      U;
}
// * * * * * * * * * * * * * * * * * * * * * * * * * * * * * * * * * * * * * //

dimensions      [0 1 -1 0 0 0 0];

internalField   nonuniform List<vector> 
100
(
(-1.51011e-13 0 0)
(-2.51725e-13 0 0)
(-3.52611e-13 0 0)
(3.58928e-14 0 0)
(2.63198e-13 0 0)
(1.06713e-14 0 0)
(-1.74028e-13 0 0)
(-3.45132e-13 0 0)
(2.90375e-14 0 0)
(3.23559e-13 0 0)
(7.07236e-14 0 0)
(-1.78636e-13 0 0)
(1.17716e-13 0 0)
(4.05024e-13 0 0)
(-3.01227e-14 0 0)
(-8.45257e-14 0 0)
(8.55425e-14 0 0)
(-4.9036e-15 0 0)
(-4.45149e-14 0 0)
(-1.14264e-14 0 0)
(-4.55089e-14 0 0)
(-3.93162e-14 0 0)
(-1.25432e-14 0 0)
(-9.39557e-14 0 0)
(-5.76256e-14 0 0)
(1.10564e-13 0 0)
(3.87666e-14 0 0)
(-1.70248e-13 0 0)
(-1.65609e-14 0 0)
(1.3834e-13 0 0)
(-1.49862e-13 0 0)
(-1.57132e-13 0 0)
(-1.26943e-13 0 0)
(-4.94583e-14 0 0)
(1.16779e-13 0 0)
(7.355e-15 0 0)
(-1.6461e-13 0 0)
(-2.81982e-13 0 0)
(7.19762e-12 0 0)
(3.90151e-09 0 0)
(1.02092e-06 0 0)
(0.000126001 0 0)
(0.00705366 0 0)
(0.175322 0 0)
(1.97589 0 0)
(11.0582 0 0)
(35.8302 0 0)
(77.9223 0 0)
(129.692 0 0)
(196.732 0 0)
(250.661 0 0)
(300.57 0 0)
(305.048 0 0)
(309.117 0 0)
(275.477 0 0)
(127.623 0 0)
(15.6735 0 0)
(0.458374 0 0)
(0.00526091 0 0)
(2.91775e-05 0 0)
(9.05037e-08 0 0)
(1.59305e-10 0 0)
(7.10253e-14 0 0)
(-1.3579e-13 0 0)
(-1.1158e-13 0 0)
(2.99411e-14 0 0)
(6.18111e-15 0 0)
(-1.31081e-14 0 0)
(1.86963e-14 0 0)
(-3.62574e-14 0 0)
(4.4885e-14 0 0)
(1.83694e-13 0 0)
(1.0957e-13 0 0)
(4.81855e-14 0 0)
(6.67595e-14 0 0)
(-4.72211e-14 0 0)
(-4.20925e-14 0 0)
(1.21526e-13 0 0)
(3.2437e-13 0 0)
(1.40222e-13 0 0)
(-1.36862e-13 0 0)
(-1.03375e-13 0 0)
(-1.86963e-14 0 0)
(8.13181e-14 0 0)
(8.41333e-14 0 0)
(-7.14248e-14 0 0)
(-2.06204e-13 0 0)
(-2.83145e-13 0 0)
(-1.02051e-13 0 0)
(7.56282e-14 0 0)
(8.8051e-14 0 0)
(1.16175e-14 0 0)
(-9.13747e-14 0 0)
(-6.23755e-14 0 0)
(6.75778e-14 0 0)
(3.10135e-14 0 0)
(-5.07023e-14 0 0)
(-7.37833e-14 0 0)
(-1.23676e-13 0 0)
(-7.742e-14 0 0)
)
;

boundaryField
{
    sides
    {
        type            zeroGradient;
    }
    empty
    {
        type            empty;
    }
}


// ************************************************************************* //
