/*--------------------------------*- C++ -*----------------------------------*\
| =========                 |                                                 |
| \\      /  F ield         | OpenFOAM: The Open Source CFD Toolbox           |
|  \\    /   O peration     | Version:  2312                                  |
|   \\  /    A nd           | Website:  www.openfoam.com                      |
|    \\/     M anipulation  |                                                 |
\*---------------------------------------------------------------------------*/
FoamFile
{
    version     2.0;
    format      ascii;
    arch        "LSB;label=32;scalar=64";
    class       volVectorField;
    location    "0.001";
    object      U;
}
// * * * * * * * * * * * * * * * * * * * * * * * * * * * * * * * * * * * * * //

dimensions      [0 1 -1 0 0 0 0];

internalField   nonuniform List<vector> 
100
(
(8.28495e-14 0 0)
(-7.55719e-15 0 0)
(-4.74725e-14 0 0)
(6.29099e-15 0 0)
(-4.71668e-14 0 0)
(5.43581e-14 0 0)
(-3.24856e-14 0 0)
(-3.08536e-14 0 0)
(5.00964e-14 0 0)
(1.83504e-14 0 0)
(1.77732e-13 0 0)
(1.15071e-13 0 0)
(1.11251e-13 0 0)
(1.34551e-13 0 0)
(9.64198e-15 0 0)
(3.14996e-14 0 0)
(-2.51078e-15 0 0)
(-1.07348e-14 0 0)
(8.01271e-14 0 0)
(-5.68337e-14 0 0)
(-5.29352e-14 0 0)
(-2.4674e-14 0 0)
(-7.63504e-14 0 0)
(-1.12983e-14 0 0)
(-4.99826e-14 0 0)
(3.39287e-14 0 0)
(1.12678e-14 0 0)
(3.78191e-14 0 0)
(5.41179e-14 0 0)
(4.9224e-14 0 0)
(1.36661e-12 0 0)
(3.64855e-11 0 0)
(8.03059e-10 0 0)
(1.47989e-08 0 0)
(2.28949e-07 0 0)
(2.97611e-06 0 0)
(3.2521e-05 0 0)
(0.000298736 0 0)
(0.00230542 0 0)
(0.0149262 0 0)
(0.0808893 0 0)
(0.365826 0 0)
(1.37679 0 0)
(4.30953 0 0)
(11.2736 0 0)
(24.9568 0 0)
(47.6777 0 0)
(80.4461 0 0)
(122.521 0 0)
(171.211 0 0)
(219.767 0 0)
(255.97 0 0)
(270.546 0 0)
(263.407 0 0)
(231.383 0 0)
(169.812 0 0)
(91.9383 0 0)
(32.7403 0 0)
(7.95251 0 0)
(1.51462 0 0)
(0.244565 0 0)
(0.0340574 0 0)
(0.00408318 0 0)
(0.000419313 0 0)
(3.6705e-05 0 0)
(2.72773e-06 0 0)
(1.71531e-07 0 0)
(9.10303e-09 0 0)
(4.06663e-10 0 0)
(1.52707e-11 0 0)
(6.06397e-13 0 0)
(-4.81919e-14 0 0)
(-3.91291e-14 0 0)
(4.1889e-14 0 0)
(1.02989e-13 0 0)
(2.22414e-13 0 0)
(-1.89818e-14 0 0)
(5.29728e-14 0 0)
(1.19749e-13 0 0)
(5.29728e-14 0 0)
(3.36036e-15 0 0)
(-4.20925e-14 0 0)
(1.03868e-15 0 0)
(2.62679e-14 0 0)
(1.14255e-14 0 0)
(-4.85738e-14 0 0)
(-1.97895e-13 0 0)
(-1.20331e-13 0 0)
(-1.07397e-13 0 0)
(-1.00785e-13 0 0)
(-3.52442e-14 0 0)
(1.96528e-14 0 0)
(2.31813e-13 0 0)
(-4.17325e-14 0 0)
(-1.03443e-13 0 0)
(-1.96436e-13 0 0)
(-2.09294e-13 0 0)
(5.85696e-14 0 0)
(2.60265e-13 0 0)
(3.08379e-13 0 0)
)
;

boundaryField
{
    sides
    {
        type            zeroGradient;
    }
    empty
    {
        type            empty;
    }
}


// ************************************************************************* //
