/*--------------------------------*- C++ -*----------------------------------*\
| =========                 |                                                 |
| \\      /  F ield         | OpenFOAM: The Open Source CFD Toolbox           |
|  \\    /   O peration     | Version:  2212                                  |
|   \\  /    A nd           | Website:  www.openfoam.com                      |
|    \\/     M anipulation  |                                                 |
\*---------------------------------------------------------------------------*/
FoamFile
{
    version     2.0;
    format      ascii;
    arch        "LSB;label=32;scalar=64";
    class       volScalarField;
    location    "0.005";
    object      p;
}
// * * * * * * * * * * * * * * * * * * * * * * * * * * * * * * * * * * * * * //

dimensions      [1 -1 -2 0 0 0 0];

internalField   nonuniform List<scalar> 
100
(
100000
100000
100000
100000
100000
100000
100000
100000
100000
100000
100000
100000
100000
99999.9
99999.8
99999.6
99998.9
99997.2
99993.1
99984.1
99964.9
99926.5
99853.3
99721.6
99497.2
99135.6
98584.3
97787.6
96694.3
95264.8
93477.4
91330.8
88843.4
86049.6
82995
79731.1
76310.7
72784.6
69199.8
65597.6
62014.1
58479.6
55019.6
51655.2
48404
45281.2
42300.2
39474.8
36821.8
34365.9
32151.9
30275.4
28960
28550.2
28507.4
28494.5
28486.8
28481.8
28479
28477.7
28478.1
28480.1
28483.7
28488.1
28493.1
28497.9
28502.2
28504.9
28504.6
28497.7
28477.2
28427.6
28316.9
28079.9
27590.9
26629.8
24880.5
22072.1
18355.9
14612.8
11953.4
10659.8
10195.7
10054.8
10014.9
10004
10001
10000.3
10000.1
10000
10000
10000
10000
10000
10000
10000
10000
10000
10000
10000
)
;

boundaryField
{
    sides
    {
        type            zeroGradient;
    }
    empty
    {
        type            empty;
    }
}


// ************************************************************************* //
