/*--------------------------------*- C++ -*----------------------------------*\
| =========                 |                                                 |
| \\      /  F ield         | OpenFOAM: The Open Source CFD Toolbox           |
|  \\    /   O peration     | Version:  2312                                  |
|   \\  /    A nd           | Website:  www.openfoam.com                      |
|    \\/     M anipulation  |                                                 |
\*---------------------------------------------------------------------------*/
FoamFile
{
    version     2.0;
    format      ascii;
    arch        "LSB;label=32;scalar=64";
    class       volScalarField;
    location    "0.005";
    object      p;
}
// * * * * * * * * * * * * * * * * * * * * * * * * * * * * * * * * * * * * * //

dimensions      [1 -1 -2 0 0 0 0];

internalField   nonuniform List<scalar> 
100
(
99409.4
99157
98824.9
98399.2
97867
97217.4
96442.4
95537.3
94500.7
93334.7
92044.5
90637.8
89124.2
87514.6
85820.7
84054.5
82227.7
80351.6
78436.9
76493.5
74530.5
72555.9
70577.1
68600.6
66632.1
64676.6
62738.6
60821.8
58929.5
57064.8
55229.9
53427.2
51658.3
49925.1
48228.8
46570.8
44952.3
43374.5
41838.4
40345.4
38896.9
37495
36141.9
34841.2
33597.7
32418.7
31315.2
30304
29410.7
28671.7
28130.2
27812.4
27683.7
27647.4
27632
27622.6
27616.8
27613.7
27612.6
27612.9
27614.2
27616.3
27618.8
27621.7
27624.7
27627.9
27631
27634.1
27637.2
27640.2
27643.1
27646.1
27649
27651.8
27654.6
27657.3
27660
27662.6
27665.1
27667.7
27670.2
27672.7
27675.3
27677.9
27680.6
27683.4
27686.3
27689.6
27693.3
27698.5
27707
27723
27753.4
27807.3
27891.2
28000.7
28116.1
28209.2
28262
28279.7
)
;

boundaryField
{
    sides
    {
        type            zeroGradient;
    }
    empty
    {
        type            empty;
    }
}


// ************************************************************************* //
