/*--------------------------------*- C++ -*----------------------------------*\
| =========                 |                                                 |
| \\      /  F ield         | OpenFOAM: The Open Source CFD Toolbox           |
|  \\    /   O peration     | Version:  2212                                  |
|   \\  /    A nd           | Website:  www.openfoam.com                      |
|    \\/     M anipulation  |                                                 |
\*---------------------------------------------------------------------------*/
FoamFile
{
    version     2.0;
    format      ascii;
    arch        "LSB;label=32;scalar=64";
    class       volScalarField;
    location    "0.005";
    object      p;
}
// * * * * * * * * * * * * * * * * * * * * * * * * * * * * * * * * * * * * * //

dimensions      [1 -1 -2 0 0 0 0];

internalField   nonuniform List<scalar> 
100
(
100000
100000
100000
100000
100000
100000
100000
100000
100000
100000
100000
100000
100000
100000
100000
100000
100000
100000
100000
100000
100000
100000
100000
100000
100000
100000
100000
100000
100000
100000
99999.8
99944.6
98642.9
93373.3
86209.9
79956.4
74692.7
69998
65648.5
61556.2
57683.9
54010.2
50519.9
47201.5
44047.8
41055.8
38227
35562.1
33088.2
30844.5
28942.9
27747.7
28560
28639.2
28460.8
28316.9
28282.8
28340.9
28361.3
28367.2
28390.3
28419.2
28423
28408.5
28637.8
28839.4
27972.7
27937.3
28086.4
28450.2
28985.9
29071.6
28916
28147.7
27813.5
27863.3
27865.8
25790.5
14659.3
10060.9
10000
10000
10000
10000
10000
10000
10000
10000
10000
10000
10000
10000
10000
10000
10000
10000
10000
10000
10000
10000
)
;

boundaryField
{
    sides
    {
        type            zeroGradient;
    }
    empty
    {
        type            empty;
    }
}


// ************************************************************************* //
