/*--------------------------------*- C++ -*----------------------------------*\
| =========                 |                                                 |
| \\      /  F ield         | OpenFOAM: The Open Source CFD Toolbox           |
|  \\    /   O peration     | Version:  2312                                  |
|   \\  /    A nd           | Website:  www.openfoam.com                      |
|    \\/     M anipulation  |                                                 |
\*---------------------------------------------------------------------------*/
FoamFile
{
    version     2.0;
    format      ascii;
    arch        "LSB;label=32;scalar=64";
    class       volScalarField;
    location    "0.005";
    object      p;
}
// * * * * * * * * * * * * * * * * * * * * * * * * * * * * * * * * * * * * * //

dimensions      [1 -1 -2 0 0 0 0];

internalField   nonuniform List<scalar> 
100
(
100000
100000
100000
100000
100000
100000
100000
100000
100000
100000
100000
100000
100000
99999.9
99999.8
99999.6
99998.9
99997.2
99993.1
99984.1
99965.1
99927
99854.6
99724.1
99501.9
99143.9
98597.8
97808.3
96724.1
95305.4
93530
91396.1
88921.3
86139.5
83095.9
79841.5
76429
72909.2
69329
65730
62148.2
58614.4
55153.9
51788.3
48535
45409.2
42424.6
39594.6
36935.7
34471.7
32246.1
30350.8
29005.1
28574.9
28528.9
28514.6
28506.4
28502.2
28500.8
28501.5
28503.6
28506.8
28510.7
28515.1
28519.6
28524
28527.7
28529.9
28528.9
28521.1
28499.3
28447.8
28334.1
28092.3
27595.9
26623.9
24860.5
22037.9
18315.2
14579.1
11934.9
10652.9
10193.7
10054.3
10014.8
10004
10001
10000.3
10000.1
10000
10000
10000
10000
10000
10000
10000
10000
10000
10000
10000
)
;

boundaryField
{
    sides
    {
        type            zeroGradient;
    }
    empty
    {
        type            empty;
    }
}


// ************************************************************************* //
