/*--------------------------------*- C++ -*----------------------------------*\
| =========                 |                                                 |
| \\      /  F ield         | OpenFOAM: The Open Source CFD Toolbox           |
|  \\    /   O peration     | Version:  2312                                  |
|   \\  /    A nd           | Website:  www.openfoam.com                      |
|    \\/     M anipulation  |                                                 |
\*---------------------------------------------------------------------------*/
FoamFile
{
    version     2.0;
    format      ascii;
    arch        "LSB;label=32;scalar=64";
    class       volScalarField;
    location    "0.005";
    object      rho;
}
// * * * * * * * * * * * * * * * * * * * * * * * * * * * * * * * * * * * * * //

dimensions      [1 -3 0 0 0 0 0];

internalField   nonuniform List<scalar> 
100
(
1.15862
1.15862
1.15862
1.15862
1.15862
1.15862
1.15862
1.15862
1.15862
1.15862
1.15862
1.15862
1.15862
1.15862
1.15862
1.15862
1.15861
1.1586
1.15857
1.15849
1.15833
1.15802
1.15742
1.15634
1.15449
1.15152
1.14698
1.14039
1.13131
1.11937
1.10434
1.08616
1.06489
1.04076
1.01408
0.985228
0.954591
0.922563
0.889516
0.85579
0.821691
0.787486
0.753412
0.719676
0.686463
0.653944
0.622284
0.591665
0.562307
0.534531
0.508894
0.486537
0.470104
0.463936
0.461811
0.459383
0.455917
0.450742
0.443054
0.432107
0.41749
0.399366
0.378529
0.356243
0.333947
0.31296
0.29427
0.278461
0.265722
0.255922
0.248688
0.243481
0.239618
0.236244
0.232201
0.225835
0.214944
0.197515
0.173932
0.1492
0.130643
0.121056
0.11744
0.116309
0.115985
0.115895
0.115871
0.115865
0.115863
0.115862
0.115862
0.115862
0.115862
0.115862
0.115862
0.115862
0.115862
0.115862
0.115862
0.115862
)
;

boundaryField
{
    sides
    {
        type            calculated;
        value           nonuniform List<scalar> 2(0.115862 1.15862);
    }
    empty
    {
        type            empty;
    }
}


// ************************************************************************* //
