/*--------------------------------*- C++ -*----------------------------------*\
| =========                 |                                                 |
| \\      /  F ield         | OpenFOAM: The Open Source CFD Toolbox           |
|  \\    /   O peration     | Version:  2212                                  |
|   \\  /    A nd           | Website:  www.openfoam.com                      |
|    \\/     M anipulation  |                                                 |
\*---------------------------------------------------------------------------*/
FoamFile
{
    version     2.0;
    format      ascii;
    arch        "LSB;label=32;scalar=64";
    class       volScalarField;
    location    "0.005";
    object      rho;
}
// * * * * * * * * * * * * * * * * * * * * * * * * * * * * * * * * * * * * * //

dimensions      [1 -3 0 0 0 0 0];

internalField   nonuniform List<scalar> 
100
(
1.16103
1.16103
1.16103
1.16103
1.16103
1.16103
1.16103
1.16103
1.16103
1.16103
1.16103
1.16103
1.16103
1.16103
1.16103
1.16102
1.16102
1.161
1.16097
1.1609
1.16074
1.16042
1.15982
1.15873
1.15687
1.15388
1.14931
1.14268
1.13355
1.12155
1.10646
1.08821
1.06688
1.0427
1.01598
0.987093
0.956433
0.924391
0.891339
0.857613
0.823519
0.789322
0.755256
0.721529
0.688324
0.655812
0.624161
0.593552
0.564212
0.536473
0.510912
0.488714
0.472578
0.466603
0.464459
0.461962
0.458365
0.452977
0.444985
0.433649
0.418588
0.400011
0.378758
0.356126
0.333571
0.312411
0.293623
0.277771
0.265025
0.255238
0.248028
0.242851
0.239025
0.2357
0.231729
0.225474
0.214747
0.197525
0.174141
0.149517
0.130958
0.121332
0.117691
0.116552
0.116226
0.116136
0.116111
0.116105
0.116103
0.116103
0.116103
0.116103
0.116103
0.116103
0.116103
0.116103
0.116103
0.116103
0.116103
0.116103
)
;

boundaryField
{
    sides
    {
        type            calculated;
        value           nonuniform List<scalar> 2(0.116103 1.16103);
    }
    empty
    {
        type            empty;
    }
}


// ************************************************************************* //
