/*--------------------------------*- C++ -*----------------------------------*\
| =========                 |                                                 |
| \\      /  F ield         | OpenFOAM: The Open Source CFD Toolbox           |
|  \\    /   O peration     | Version:  2312                                  |
|   \\  /    A nd           | Website:  www.openfoam.com                      |
|    \\/     M anipulation  |                                                 |
\*---------------------------------------------------------------------------*/
FoamFile
{
    version     2.0;
    format      ascii;
    arch        "LSB;label=32;scalar=64";
    class       volScalarField;
    location    "0.005";
    object      rho;
}
// * * * * * * * * * * * * * * * * * * * * * * * * * * * * * * * * * * * * * //

dimensions      [1 -3 0 0 0 0 0];

internalField   nonuniform List<scalar> 
100
(
0.279639
0.279212
0.27865
0.277928
0.277023
0.275915
0.274589
0.273034
0.271245
0.269222
0.266971
0.264501
0.261825
0.258959
0.255918
0.252721
0.249385
0.245927
0.242364
0.238711
0.234982
0.231191
0.22735
0.22347
0.21956
0.21563
0.211688
0.207741
0.203795
0.199857
0.195931
0.192023
0.188137
0.184278
0.180449
0.176655
0.172899
0.169185
0.165518
0.161902
0.158343
0.154847
0.151424
0.148086
0.144847
0.141731
0.138773
0.136023
0.133559
0.131491
0.129949
0.129017
0.128603
0.128439
0.128326
0.128218
0.128108
0.127988
0.12785
0.127684
0.127475
0.127202
0.126835
0.126329
0.125627
0.124656
0.12333
0.12156
0.119264
0.116385
0.112902
0.108843
0.104289
0.0993599
0.0942076
0.0889942
0.0838752
0.0789856
0.0744315
0.0702869
0.0665945
0.0633697
0.0606062
0.0582809
0.0563596
0.0548009
0.0535597
0.0525907
0.0518497
0.0512964
0.0508956
0.050619
0.0504465
0.0503652
0.0503637
0.0504232
0.0505114
0.0505901
0.0506345
0.0506468
)
;

boundaryField
{
    sides
    {
        type            calculated;
        value           nonuniform List<scalar> 2(0.0506468 0.279639);
    }
    empty
    {
        type            empty;
    }
}


// ************************************************************************* //
