/*--------------------------------*- C++ -*----------------------------------*\
| =========                 |                                                 |
| \\      /  F ield         | OpenFOAM: The Open Source CFD Toolbox           |
|  \\    /   O peration     | Version:  2212                                  |
|   \\  /    A nd           | Website:  www.openfoam.com                      |
|    \\/     M anipulation  |                                                 |
\*---------------------------------------------------------------------------*/
FoamFile
{
    version     2.0;
    format      ascii;
    arch        "LSB;label=32;scalar=64";
    class       volScalarField;
    location    "0.005";
    object      rho;
}
// * * * * * * * * * * * * * * * * * * * * * * * * * * * * * * * * * * * * * //

dimensions      [1 -3 0 0 0 0 0];

internalField   nonuniform List<scalar> 
100
(
1.16103
1.16103
1.16103
1.16103
1.16103
1.16103
1.16103
1.16103
1.16103
1.16103
1.16103
1.16103
1.16103
1.16103
1.16103
1.16103
1.16103
1.16103
1.16103
1.16103
1.16103
1.16103
1.16103
1.16103
1.16103
1.16103
1.16103
1.16103
1.16103
1.16103
1.16103
1.16057
1.14977
1.10577
1.04497
0.990688
0.944017
0.901564
0.861478
0.823046
0.785985
0.750146
0.715429
0.681767
0.649129
0.617526
0.587021
0.557672
0.529841
0.504111
0.481877
0.467645
0.477053
0.478464
0.47667
0.475944
0.475867
0.476489
0.476052
0.47435
0.470409
0.460621
0.437153
0.391399
0.329866
0.274269
0.238825
0.230601
0.230184
0.232421
0.236289
0.237374
0.237323
0.233366
0.231625
0.232142
0.23243
0.220767
0.148104
0.116536
0.116103
0.116103
0.116103
0.116103
0.116103
0.116103
0.116103
0.116103
0.116103
0.116103
0.116103
0.116103
0.116103
0.116103
0.116103
0.116103
0.116103
0.116103
0.116103
0.116103
)
;

boundaryField
{
    sides
    {
        type            calculated;
        value           nonuniform List<scalar> 2(0.116103 1.16103);
    }
    empty
    {
        type            empty;
    }
}


// ************************************************************************* //
