/*--------------------------------*- C++ -*----------------------------------*\
| =========                 |                                                 |
| \\      /  F ield         | OpenFOAM: The Open Source CFD Toolbox           |
|  \\    /   O peration     | Version:  2312                                  |
|   \\  /    A nd           | Website:  www.openfoam.com                      |
|    \\/     M anipulation  |                                                 |
\*---------------------------------------------------------------------------*/
FoamFile
{
    version     2.0;
    format      ascii;
    arch        "LSB;label=32;scalar=64";
    class       volScalarField;
    location    "0.005";
    object      T;
}
// * * * * * * * * * * * * * * * * * * * * * * * * * * * * * * * * * * * * * //

dimensions      [0 0 0 1 0 0 0];

internalField   nonuniform List<scalar> 
100
(
299.291
298.987
298.587
298.073
297.43
296.642
295.698
294.591
293.317
291.874
290.267
288.5
286.581
284.52
282.328
280.016
277.595
275.075
272.468
269.784
267.032
264.22
261.356
258.448
255.502
252.523
249.518
246.491
243.446
240.388
237.32
234.246
231.169
228.091
225.017
221.948
218.889
215.842
212.811
209.8
206.815
203.86
200.946
198.081
195.283
192.572
189.983
187.565
185.394
183.578
182.248
181.491
181.233
181.226
181.285
181.375
181.493
181.643
181.832
182.07
182.377
182.782
183.329
184.082
185.131
186.594
188.621
191.39
195.095
199.944
206.135
213.843
223.205
234.302
247.141
261.644
277.64
294.855
312.924
331.407
349.814
367.649
384.449
399.825
413.495
425.3
435.202
443.272
449.668
454.604
458.325
461.095
463.178
464.827
466.243
467.522
468.629
469.449
469.916
470.095
)
;

boundaryField
{
    sides
    {
        type            zeroGradient;
    }
    empty
    {
        type            empty;
    }
}


// ************************************************************************* //
