/*--------------------------------*- C++ -*----------------------------------*\
| =========                 |                                                 |
| \\      /  F ield         | OpenFOAM: The Open Source CFD Toolbox           |
|  \\    /   O peration     | Version:  2312                                  |
|   \\  /    A nd           | Website:  www.openfoam.com                      |
|    \\/     M anipulation  |                                                 |
\*---------------------------------------------------------------------------*/
FoamFile
{
    version     2.0;
    format      ascii;
    arch        "LSB;label=32;scalar=64";
    class       volScalarField;
    location    "0.005";
    object      T;
}
// * * * * * * * * * * * * * * * * * * * * * * * * * * * * * * * * * * * * * //

dimensions      [0 0 0 1 0 0 0];

internalField   nonuniform List<scalar> 
100
(
300
300
300
300
300
300
300
300
300
300
300
300
300
300
300
300
299.999
299.998
299.994
299.986
299.97
299.937
299.875
299.764
299.573
299.266
298.797
298.116
297.178
295.942
294.381
292.482
290.245
287.683
284.819
281.679
278.294
274.694
270.91
266.968
262.896
258.717
254.453
250.125
245.754
241.361
236.969
232.607
228.316
224.158
220.248
216.829
214.459
214.087
214.726
215.752
217.33
219.793
223.596
229.266
237.311
248.108
261.801
278.222
296.844
316.8
336.964
356.122
373.181
387.368
398.33
406.113
411.01
413.322
413.089
409.774
402.02
387.824
366.012
339.645
317.538
305.875
301.703
300.47
300.128
300.034
300.009
300.002
300.001
300
300
300
300
300
300
300
300
300
300
300
)
;

boundaryField
{
    sides
    {
        type            zeroGradient;
    }
    empty
    {
        type            empty;
    }
}


// ************************************************************************* //
