/*--------------------------------*- C++ -*----------------------------------*\
| =========                 |                                                 |
| \\      /  F ield         | OpenFOAM: The Open Source CFD Toolbox           |
|  \\    /   O peration     | Version:  2212                                  |
|   \\  /    A nd           | Website:  www.openfoam.com                      |
|    \\/     M anipulation  |                                                 |
\*---------------------------------------------------------------------------*/
FoamFile
{
    version     2.0;
    format      ascii;
    arch        "LSB;label=32;scalar=64";
    class       volScalarField;
    location    "0.005";
    object      T;
}
// * * * * * * * * * * * * * * * * * * * * * * * * * * * * * * * * * * * * * //

dimensions      [0 0 0 1 0 0 0];

internalField   nonuniform List<scalar> 
100
(
300
300
300
300
300
300
300
300
300
300
300
300
300
300
300
300
299.999
299.998
299.994
299.986
299.97
299.936
299.873
299.758
299.563
299.249
298.77
298.074
297.116
295.854
294.262
292.327
290.049
287.443
284.531
281.341
277.904
274.251
270.412
266.416
262.29
258.056
253.739
249.359
244.936
240.493
236.053
231.646
227.314
223.123
219.192
215.774
213.446
213.121
213.783
214.842
216.469
219.006
222.917
228.734
236.967
247.99
261.937
278.628
297.519
317.724
338.105
357.435
374.621
388.893
399.908
407.723
412.636
414.955
414.715
411.372
403.55
389.21
367.146
340.414
317.924
306.013
301.742
300.481
300.13
300.035
300.009
300.002
300.001
300
300
300
300
300
300
300
300
300
300
300
)
;

boundaryField
{
    sides
    {
        type            zeroGradient;
    }
    empty
    {
        type            empty;
    }
}


// ************************************************************************* //
