/*--------------------------------*- C++ -*----------------------------------*\
| =========                 |                                                 |
| \\      /  F ield         | OpenFOAM: The Open Source CFD Toolbox           |
|  \\    /   O peration     | Version:  2212                                  |
|   \\  /    A nd           | Website:  www.openfoam.com                      |
|    \\/     M anipulation  |                                                 |
\*---------------------------------------------------------------------------*/
FoamFile
{
    version     2.0;
    format      ascii;
    arch        "LSB;label=32;scalar=64";
    class       volScalarField;
    location    "0.005";
    object      thermo:psi;
}
// * * * * * * * * * * * * * * * * * * * * * * * * * * * * * * * * * * * * * //

dimensions      [0 -2 2 0 0 0 0];

internalField   nonuniform List<scalar> 
100
(
1.16103e-05
1.16103e-05
1.16103e-05
1.16103e-05
1.16103e-05
1.16103e-05
1.16103e-05
1.16103e-05
1.16103e-05
1.16103e-05
1.16103e-05
1.16103e-05
1.16103e-05
1.16103e-05
1.16103e-05
1.16103e-05
1.16103e-05
1.16104e-05
1.16105e-05
1.16108e-05
1.16115e-05
1.16128e-05
1.16152e-05
1.16196e-05
1.16272e-05
1.16394e-05
1.16581e-05
1.16853e-05
1.1723e-05
1.1773e-05
1.18367e-05
1.1915e-05
1.20086e-05
1.21175e-05
1.22415e-05
1.23803e-05
1.25334e-05
1.27004e-05
1.28807e-05
1.30738e-05
1.32795e-05
1.34974e-05
1.3727e-05
1.39682e-05
1.42204e-05
1.44831e-05
1.47555e-05
1.50362e-05
1.53228e-05
1.56106e-05
1.58906e-05
1.61423e-05
1.63183e-05
1.63432e-05
1.62926e-05
1.62123e-05
1.60905e-05
1.59041e-05
1.5625e-05
1.52276e-05
1.46986e-05
1.40453e-05
1.32974e-05
1.25009e-05
1.17071e-05
1.09626e-05
1.03018e-05
9.74466e-06
9.29762e-06
8.95642e-06
8.70971e-06
8.54277e-06
8.44105e-06
8.39389e-06
8.39875e-06
8.46699e-06
8.63112e-06
8.9491e-06
9.48691e-06
1.02319e-05
1.09557e-05
1.13821e-05
1.15432e-05
1.15917e-05
1.16052e-05
1.16089e-05
1.16099e-05
1.16102e-05
1.16103e-05
1.16103e-05
1.16103e-05
1.16103e-05
1.16103e-05
1.16103e-05
1.16103e-05
1.16103e-05
1.16103e-05
1.16103e-05
1.16103e-05
1.16103e-05
)
;

boundaryField
{
    sides
    {
        type            calculated;
        value           nonuniform List<scalar> 2(1.16103e-05 1.16103e-05);
    }
    empty
    {
        type            empty;
    }
}


// ************************************************************************* //
