/*--------------------------------*- C++ -*----------------------------------*\
| =========                 |                                                 |
| \\      /  F ield         | OpenFOAM: The Open Source CFD Toolbox           |
|  \\    /   O peration     | Version:  2212                                  |
|   \\  /    A nd           | Website:  www.openfoam.com                      |
|    \\/     M anipulation  |                                                 |
\*---------------------------------------------------------------------------*/
FoamFile
{
    version     2.0;
    format      ascii;
    arch        "LSB;label=32;scalar=64";
    class       volScalarField;
    location    "0.005";
    object      thermo:psi;
}
// * * * * * * * * * * * * * * * * * * * * * * * * * * * * * * * * * * * * * //

dimensions      [0 -2 2 0 0 0 0];

internalField   nonuniform List<scalar> 
100
(
1.16103e-05
1.16103e-05
1.16103e-05
1.16103e-05
1.16103e-05
1.16103e-05
1.16103e-05
1.16103e-05
1.16103e-05
1.16103e-05
1.16103e-05
1.16103e-05
1.16103e-05
1.16103e-05
1.16103e-05
1.16103e-05
1.16103e-05
1.16103e-05
1.16103e-05
1.16103e-05
1.16103e-05
1.16103e-05
1.16103e-05
1.16103e-05
1.16103e-05
1.16103e-05
1.16103e-05
1.16103e-05
1.16103e-05
1.16103e-05
1.16103e-05
1.16121e-05
1.16559e-05
1.18425e-05
1.21212e-05
1.23904e-05
1.26387e-05
1.28798e-05
1.31226e-05
1.33706e-05
1.36257e-05
1.3889e-05
1.41613e-05
1.44438e-05
1.47369e-05
1.50411e-05
1.53562e-05
1.56816e-05
1.6013e-05
1.63436e-05
1.66492e-05
1.68535e-05
1.67036e-05
1.67066e-05
1.67483e-05
1.68078e-05
1.68253e-05
1.68128e-05
1.67853e-05
1.67218e-05
1.65693e-05
1.62081e-05
1.53802e-05
1.37775e-05
1.15186e-05
9.51022e-06
8.53779e-06
8.25423e-06
8.19557e-06
8.16941e-06
8.15184e-06
8.16515e-06
8.20735e-06
8.29077e-06
8.32778e-06
8.33146e-06
8.34107e-06
8.56001e-06
1.01031e-05
1.1583e-05
1.16103e-05
1.16103e-05
1.16103e-05
1.16103e-05
1.16103e-05
1.16103e-05
1.16103e-05
1.16103e-05
1.16103e-05
1.16103e-05
1.16103e-05
1.16103e-05
1.16103e-05
1.16103e-05
1.16103e-05
1.16103e-05
1.16103e-05
1.16103e-05
1.16103e-05
1.16103e-05
)
;

boundaryField
{
    sides
    {
        type            calculated;
        value           uniform 1.16103e-05;
    }
    empty
    {
        type            empty;
    }
}


// ************************************************************************* //
