/*--------------------------------*- C++ -*----------------------------------*\
| =========                 |                                                 |
| \\      /  F ield         | OpenFOAM: The Open Source CFD Toolbox           |
|  \\    /   O peration     | Version:  2212                                  |
|   \\  /    A nd           | Website:  www.openfoam.com                      |
|    \\/     M anipulation  |                                                 |
\*---------------------------------------------------------------------------*/
FoamFile
{
    version     2.0;
    format      ascii;
    arch        "LSB;label=32;scalar=64";
    class       volVectorField;
    location    "0.005";
    object      U;
}
// * * * * * * * * * * * * * * * * * * * * * * * * * * * * * * * * * * * * * //

dimensions      [0 1 -1 0 0 0 0];

internalField   nonuniform List<vector> 
100
(
(1.75096e-12 0 0)
(9.37731e-12 0 0)
(4.72501e-11 0 0)
(2.27153e-10 0 0)
(1.04423e-09 0 0)
(4.59087e-09 0 0)
(1.92984e-08 0 0)
(7.75674e-08 0 0)
(2.98089e-07 0 0)
(1.09517e-06 0 0)
(3.84624e-06 0 0)
(1.29102e-05 0 0)
(4.14078e-05 0 0)
(0.000126875 0 0)
(0.000371269 0 0)
(0.00103722 0 0)
(0.00276543 0 0)
(0.0070336 0 0)
(0.0170576 0 0)
(0.0394251 0 0)
(0.0868027 0 0)
(0.181972 0 0)
(0.363113 0 0)
(0.689571 0 0)
(1.24648 0 0)
(2.14597 0 0)
(3.52273 0 0)
(5.52344 0 0)
(8.2914 0 0)
(11.9502 0 0)
(16.5908 0 0)
(22.2641 0 0)
(28.9814 0 0)
(36.7195 0 0)
(45.429 0 0)
(55.0433 0 0)
(65.4871 0 0)
(76.682 0 0)
(88.5514 0 0)
(101.023 0 0)
(114.029 0 0)
(127.507 0 0)
(141.4 0 0)
(155.653 0 0)
(170.209 0 0)
(185.012 0 0)
(199.993 0 0)
(215.063 0 0)
(230.094 0 0)
(244.877 0 0)
(259.019 0 0)
(271.694 0 0)
(281.006 0 0)
(284.004 0 0)
(284.348 0 0)
(284.477 0 0)
(284.573 0 0)
(284.654 0 0)
(284.725 0 0)
(284.79 0 0)
(284.849 0 0)
(284.901 0 0)
(284.947 0 0)
(284.989 0 0)
(285.028 0 0)
(285.064 0 0)
(285.094 0 0)
(285.111 0 0)
(285.098 0 0)
(285.019 0 0)
(284.801 0 0)
(284.286 0 0)
(283.139 0 0)
(280.674 0 0)
(275.537 0 0)
(265.206 0 0)
(245.54 0 0)
(211.297 0 0)
(159.681 0 0)
(97.7745 0 0)
(45.1225 0 0)
(15.9533 0 0)
(4.80955 0 0)
(1.35334 0 0)
(0.369186 0 0)
(0.0986675 0 0)
(0.0258655 0 0)
(0.00664135 0 0)
(0.00166675 0 0)
(0.000407979 0 0)
(9.72035e-05 0 0)
(2.25014e-05 0 0)
(5.05246e-06 0 0)
(1.09881e-06 0 0)
(2.31146e-07 0 0)
(4.69762e-08 0 0)
(9.21328e-09 0 0)
(1.74196e-09 0 0)
(3.17066e-10 0 0)
(5.53549e-11 0 0)
)
;

boundaryField
{
    sides
    {
        type            zeroGradient;
    }
    empty
    {
        type            empty;
    }
}


// ************************************************************************* //
