/*--------------------------------*- C++ -*----------------------------------*\
| =========                 |                                                 |
| \\      /  F ield         | OpenFOAM: The Open Source CFD Toolbox           |
|  \\    /   O peration     | Version:  2212                                  |
|   \\  /    A nd           | Website:  www.openfoam.com                      |
|    \\/     M anipulation  |                                                 |
\*---------------------------------------------------------------------------*/
FoamFile
{
    version     2.0;
    format      ascii;
    arch        "LSB;label=32;scalar=64";
    class       volVectorField;
    location    "0.005";
    object      U;
}
// * * * * * * * * * * * * * * * * * * * * * * * * * * * * * * * * * * * * * //

dimensions      [0 1 -1 0 0 0 0];

internalField   nonuniform List<vector> 
100
(
(1.41203e-13 0 0)
(1.45847e-13 0 0)
(1.6672e-13 0 0)
(1.16599e-13 0 0)
(7.09702e-14 0 0)
(5.13879e-14 0 0)
(1.01543e-13 0 0)
(1.46234e-13 0 0)
(9.26616e-14 0 0)
(1.31994e-13 0 0)
(1.1035e-13 0 0)
(5.20341e-14 0 0)
(5.16232e-14 0 0)
(8.26809e-14 0 0)
(7.07892e-14 0 0)
(4.68084e-14 0 0)
(-8.59281e-14 0 0)
(-7.27582e-14 0 0)
(-1.84946e-14 0 0)
(5.9831e-14 0 0)
(2.12307e-14 0 0)
(-1.54538e-15 0 0)
(-9.76612e-15 0 0)
(9.6545e-15 0 0)
(1.95532e-14 0 0)
(-4.71791e-14 0 0)
(-1.41285e-13 0 0)
(-1.7612e-13 0 0)
(5.92499e-13 0 0)
(5.32667e-08 0 0)
(0.000466729 0 0)
(0.137188 0 0)
(3.37405 0 0)
(16.8415 0 0)
(36.241 0 0)
(54.3853 0 0)
(70.6304 0 0)
(85.9611 0 0)
(100.965 0 0)
(115.875 0 0)
(130.783 0 0)
(145.738 0 0)
(160.775 0 0)
(175.916 0 0)
(191.173 0 0)
(206.538 0 0)
(221.981 0 0)
(237.411 0 0)
(252.73 0 0)
(267.521 0 0)
(280.541 0 0)
(289.344 0 0)
(283.726 0 0)
(283.007 0 0)
(284.341 0 0)
(285.181 0 0)
(285.201 0 0)
(284.703 0 0)
(284.592 0 0)
(284.68 0 0)
(284.732 0 0)
(284.739 0 0)
(284.914 0 0)
(285.141 0 0)
(286.515 0 0)
(288.386 0 0)
(280.011 0 0)
(279.391 0 0)
(281.119 0 0)
(284.749 0 0)
(290.109 0 0)
(291.086 0 0)
(289.305 0 0)
(281.377 0 0)
(277.819 0 0)
(278.309 0 0)
(278.285 0 0)
(257.204 0 0)
(100.214 0 0)
(1.50209 0 0)
(9.08981e-05 0 0)
(9.65716e-11 0 0)
(-1.93029e-13 0 0)
(-1.70729e-13 0 0)
(-6.51356e-14 0 0)
(-5.2044e-14 0 0)
(-6.72292e-14 0 0)
(-1.99316e-13 0 0)
(-1.43713e-13 0 0)
(-1.92557e-13 0 0)
(-1.88493e-13 0 0)
(-1.86655e-13 0 0)
(-2.93618e-13 0 0)
(-2.45336e-13 0 0)
(-2.75724e-13 0 0)
(-2.63125e-13 0 0)
(-3.72077e-13 0 0)
(-3.30016e-13 0 0)
(-2.90279e-13 0 0)
(-2.38678e-13 0 0)
)
;

boundaryField
{
    sides
    {
        type            zeroGradient;
    }
    empty
    {
        type            empty;
    }
}


// ************************************************************************* //
