/*--------------------------------*- C++ -*----------------------------------*\
| =========                 |                                                 |
| \\      /  F ield         | OpenFOAM: The Open Source CFD Toolbox           |
|  \\    /   O peration     | Version:  2312                                  |
|   \\  /    A nd           | Website:  www.openfoam.com                      |
|    \\/     M anipulation  |                                                 |
\*---------------------------------------------------------------------------*/
FoamFile
{
    version     2.0;
    format      ascii;
    arch        "LSB;label=32;scalar=64";
    class       volVectorField;
    location    "0.005";
    object      U;
}
// * * * * * * * * * * * * * * * * * * * * * * * * * * * * * * * * * * * * * //

dimensions      [0 1 -1 0 0 0 0];

internalField   nonuniform List<vector> 
100
(
(2.73805 0 0)
(3.91133 0 0)
(5.45915 0 0)
(7.44972 0 0)
(9.948 0 0)
(13.0118 0 0)
(16.6886 0 0)
(21.0131 0 0)
(26.0063 0 0)
(31.6753 0 0)
(38.0149 0 0)
(45.0086 0 0)
(52.6317 0 0)
(60.8529 0 0)
(69.6365 0 0)
(78.9447 0 0)
(88.7387 0 0)
(98.9803 0 0)
(109.632 0 0)
(120.66 0 0)
(132.029 0 0)
(143.711 0 0)
(155.677 0 0)
(167.901 0 0)
(180.359 0 0)
(193.032 0 0)
(205.899 0 0)
(218.944 0 0)
(232.149 0 0)
(245.5 0 0)
(258.985 0 0)
(272.588 0 0)
(286.3 0 0)
(300.107 0 0)
(313.998 0 0)
(327.96 0 0)
(341.982 0 0)
(356.048 0 0)
(370.144 0 0)
(384.249 0 0)
(398.341 0 0)
(412.389 0 0)
(426.354 0 0)
(440.183 0 0)
(453.798 0 0)
(467.087 0 0)
(479.884 0 0)
(491.935 0 0)
(502.857 0 0)
(512.099 0 0)
(519 0 0)
(523.108 0 0)
(524.794 0 0)
(525.284 0 0)
(525.506 0 0)
(525.65 0 0)
(525.748 0 0)
(525.811 0 0)
(525.851 0 0)
(525.873 0 0)
(525.883 0 0)
(525.885 0 0)
(525.882 0 0)
(525.877 0 0)
(525.871 0 0)
(525.866 0 0)
(525.862 0 0)
(525.861 0 0)
(525.862 0 0)
(525.866 0 0)
(525.873 0 0)
(525.881 0 0)
(525.892 0 0)
(525.906 0 0)
(525.922 0 0)
(525.941 0 0)
(525.962 0 0)
(525.987 0 0)
(526.014 0 0)
(526.044 0 0)
(526.077 0 0)
(526.113 0 0)
(526.152 0 0)
(526.195 0 0)
(526.241 0 0)
(526.29 0 0)
(526.343 0 0)
(526.398 0 0)
(526.449 0 0)
(526.48 0 0)
(526.453 0 0)
(526.282 0 0)
(525.822 0 0)
(524.887 0 0)
(523.346 0 0)
(521.288 0 0)
(519.124 0 0)
(517.423 0 0)
(516.531 0 0)
(516.314 0 0)
)
;

boundaryField
{
    sides
    {
        type            zeroGradient;
    }
    empty
    {
        type            empty;
    }
}


// ************************************************************************* //
