/*--------------------------------*- C++ -*----------------------------------*\
| =========                 |                                                 |
| \\      /  F ield         | OpenFOAM: The Open Source CFD Toolbox           |
|  \\    /   O peration     | Version:  2312                                  |
|   \\  /    A nd           | Website:  www.openfoam.com                      |
|    \\/     M anipulation  |                                                 |
\*---------------------------------------------------------------------------*/
FoamFile
{
    version     2.0;
    format      ascii;
    arch        "LSB;label=32;scalar=64";
    class       volVectorField;
    location    "0.005";
    object      U;
}
// * * * * * * * * * * * * * * * * * * * * * * * * * * * * * * * * * * * * * //

dimensions      [0 1 -1 0 0 0 0];

internalField   nonuniform List<vector> 
100
(
(1.7292e-12 0 0)
(1.00639e-11 0 0)
(5.12206e-11 0 0)
(2.45138e-10 0 0)
(1.1184e-09 0 0)
(4.87857e-09 0 0)
(2.0357e-08 0 0)
(8.12617e-08 0 0)
(3.10301e-07 0 0)
(1.13335e-06 0 0)
(3.9588e-06 0 0)
(1.32222e-05 0 0)
(4.22168e-05 0 0)
(0.000128824 0 0)
(0.000375581 0 0)
(0.00104581 0 0)
(0.00278021 0 0)
(0.00705319 0 0)
(0.0170676 0 0)
(0.0393753 0 0)
(0.0865611 0 0)
(0.181247 0 0)
(0.361334 0 0)
(0.685754 0 0)
(1.23911 0 0)
(2.13292 0 0)
(3.50143 0 0)
(5.4911 0 0)
(8.24545 0 0)
(11.8888 0 0)
(16.5131 0 0)
(22.1708 0 0)
(28.8744 0 0)
(36.6021 0 0)
(45.3054 0 0)
(54.9185 0 0)
(65.3664 0 0)
(76.5712 0 0)
(88.4562 0 0)
(100.949 0 0)
(113.981 0 0)
(127.491 0 0)
(141.42 0 0)
(155.713 0 0)
(170.316 0 0)
(185.169 0 0)
(200.206 0 0)
(215.339 0 0)
(230.444 0 0)
(245.314 0 0)
(259.572 0 0)
(272.415 0 0)
(281.978 0 0)
(285.138 0 0)
(285.505 0 0)
(285.643 0 0)
(285.742 0 0)
(285.815 0 0)
(285.873 0 0)
(285.92 0 0)
(285.963 0 0)
(286.003 0 0)
(286.041 0 0)
(286.08 0 0)
(286.117 0 0)
(286.152 0 0)
(286.18 0 0)
(286.194 0 0)
(286.176 0 0)
(286.091 0 0)
(285.862 0 0)
(285.327 0 0)
(284.149 0 0)
(281.634 0 0)
(276.413 0 0)
(265.948 0 0)
(246.077 0 0)
(211.552 0 0)
(159.628 0 0)
(97.5227 0 0)
(44.894 0 0)
(15.8485 0 0)
(4.7785 0 0)
(1.34658 0 0)
(0.368293 0 0)
(0.0987884 0 0)
(0.0260192 0 0)
(0.00671921 0 0)
(0.00169761 0 0)
(0.000418681 0 0)
(0.000100584 0 0)
(2.34919e-05 0 0)
(5.32462e-06 0 0)
(1.16936e-06 0 0)
(2.48479e-07 0 0)
(5.10231e-08 0 0)
(1.01134e-08 0 0)
(1.93323e-09 0 0)
(3.56173e-10 0 0)
(6.32653e-11 0 0)
)
;

boundaryField
{
    sides
    {
        type            zeroGradient;
    }
    empty
    {
        type            empty;
    }
}


// ************************************************************************* //
