/*--------------------------------*- C++ -*----------------------------------*\
| =========                 |                                                 |
| \\      /  F ield         | OpenFOAM: The Open Source CFD Toolbox           |
|  \\    /   O peration     | Version:  2312                                  |
|   \\  /    A nd           | Website:  www.openfoam.com                      |
|    \\/     M anipulation  |                                                 |
\*---------------------------------------------------------------------------*/
FoamFile
{
    version     2.0;
    format      ascii;
    arch        "LSB;label=32;scalar=64";
    class       volScalarField;
    location    "0.075";
    object      T;
}
// * * * * * * * * * * * * * * * * * * * * * * * * * * * * * * * * * * * * * //

dimensions      [0 0 0 1 0 0 0];

internalField   nonuniform List<scalar> 
100
(
185.997
200.808
194.119
208.952
201.775
214.819
208.247
218.576
213.323
220.642
216.884
221.474
218.976
221.455
219.809
220.86
219.69
219.891
218.948
218.699
217.863
217.414
216.645
216.133
215.429
214.926
214.291
213.829
213.263
212.851
212.348
211.984
211.534
211.21
210.802
210.51
210.136
209.868
209.521
209.272
208.948
208.716
208.416
208.203
207.933
207.754
207.542
207.448
207.39
207.556
207.945
208.823
210.243
212.377
214.975
217.805
220.349
222.472
223.97
225.066
225.742
226.281
226.616
226.97
227.214
227.526
227.754
228.05
228.26
228.525
228.692
228.902
229.002
229.138
229.155
229.207
229.138
229.108
228.959
228.852
228.639
228.458
228.203
227.949
227.678
227.343
227.081
226.653
226.423
225.888
225.707
225.053
224.925
224.154
224.069
223.197
223.134
222.192
222.126
221.154
)
;

boundaryField
{
    sides
    {
        type            zeroGradient;
    }
    empty
    {
        type            empty;
    }
}


// ************************************************************************* //
