/*--------------------------------*- C++ -*----------------------------------*\
| =========                 |                                                 |
| \\      /  F ield         | OpenFOAM: The Open Source CFD Toolbox           |
|  \\    /   O peration     | Version:  2312                                  |
|   \\  /    A nd           | Website:  www.openfoam.com                      |
|    \\/     M anipulation  |                                                 |
\*---------------------------------------------------------------------------*/
FoamFile
{
    version     2.0;
    format      ascii;
    arch        "LSB;label=32;scalar=64";
    class       volScalarField;
    location    "0.075";
    object      thermo:e;
}
// * * * * * * * * * * * * * * * * * * * * * * * * * * * * * * * * * * * * * //

dimensions      [0 2 -2 0 0 0 0];

internalField   nonuniform List<scalar> 
100
(
133769
144421
139611
150278
145117
154498
149771
157200
153422
158686
155983
159284
157488
159270
158086
158843
158001
158145
157467
157289
156687
156364
155811
155443
154936
154575
154118
153786
153379
153083
152721
152459
152135
151902
151609
151399
151130
150937
150687
150508
150276
150108
149893
149739
149545
149416
149264
149197
149155
149274
149554
150186
151207
152742
154610
156645
158475
160002
161079
161868
162354
162741
162982
163237
163412
163637
163800
164014
164164
164355
164475
164627
164698
164796
164808
164846
164796
164775
164667
164590
164437
164307
164124
163941
163746
163505
163317
163009
162844
162458
162328
161858
161766
161211
161150
160523
160478
159801
159753
159054
)
;

boundaryField
{
    sides
    {
        type            zeroGradient;
    }
    empty
    {
        type            empty;
    }
}


// ************************************************************************* //
