/*--------------------------------*- C++ -*----------------------------------*\
| =========                 |                                                 |
| \\      /  F ield         | OpenFOAM: The Open Source CFD Toolbox           |
|  \\    /   O peration     | Version:  2312                                  |
|   \\  /    A nd           | Website:  www.openfoam.com                      |
|    \\/     M anipulation  |                                                 |
\*---------------------------------------------------------------------------*/
FoamFile
{
    version     2.0;
    format      ascii;
    arch        "LSB;label=32;scalar=64";
    class       volScalarField;
    location    "0.007";
    object      p;
}
// * * * * * * * * * * * * * * * * * * * * * * * * * * * * * * * * * * * * * //

dimensions      [1 -1 -2 0 0 0 0];

internalField   nonuniform List<scalar> 
100
(
100207
100207
100207
100207
100207
100207
100207
100207
100207
100207
100207
100207
100207
100207
100207
100207
100206
100204
100197
100179
100133
100022
99775.1
99273.7
98348.8
96812
94522.4
91463.7
87772.1
83681.6
79431.2
75324.7
71495.8
67922.3
64564.7
61398.6
58401.5
55559.8
52862.7
50299.8
47862.8
45543.7
43334.3
41228.8
39227.2
37332.8
35553.8
33935.9
32430.9
31017.6
29965.9
29183.8
28486.1
28076
28052.9
28092.2
28401.2
28466.2
28428.1
28409.8
28416.3
28477
28534.9
28563.2
28564.3
28509.4
28496.3
28482.7
28615.6
28313.8
28992.3
27899.8
28961.9
28319.6
28656.2
28525.1
28576.7
28553
28562.1
28574.1
28597.6
28614.5
28589.7
28578.3
28568.5
28543.7
28514.7
28167.8
25151.5
14470.4
10415.9
10053.9
10023.4
10020.9
10020.7
10020.7
10020.7
10020.7
10020.7
10020.7
)
;

boundaryField
{
    sides
    {
        type            zeroGradient;
    }
    empty
    {
        type            empty;
    }
}


// ************************************************************************* //
