/*--------------------------------*- C++ -*----------------------------------*\
| =========                 |                                                 |
| \\      /  F ield         | OpenFOAM: The Open Source CFD Toolbox           |
|  \\    /   O peration     | Version:  2312                                  |
|   \\  /    A nd           | Website:  www.openfoam.com                      |
|    \\/     M anipulation  |                                                 |
\*---------------------------------------------------------------------------*/
FoamFile
{
    version     2.0;
    format      ascii;
    arch        "LSB;label=32;scalar=64";
    class       volScalarField;
    location    "0.007";
    object      rho;
}
// * * * * * * * * * * * * * * * * * * * * * * * * * * * * * * * * * * * * * //

dimensions      [1 -3 0 0 0 0 0];

internalField   nonuniform List<scalar> 
100
(
1.16102
1.16102
1.16102
1.16102
1.16102
1.16102
1.16102
1.16102
1.16102
1.16102
1.16102
1.16102
1.16102
1.16102
1.16102
1.16102
1.16101
1.16099
1.16094
1.16079
1.16041
1.15949
1.15744
1.15329
1.1456
1.13279
1.1136
1.08776
1.05627
1.02092
0.983633
0.947052
0.912479
0.879718
0.848481
0.818592
0.789885
0.762272
0.735684
0.710054
0.685333
0.66147
0.63841
0.616118
0.594618
0.573959
0.554275
0.53616
0.519119
0.503167
0.490857
0.480693
0.472367
0.469066
0.469118
0.469295
0.472085
0.471851
0.471155
0.471195
0.472289
0.474089
0.474955
0.474687
0.472498
0.466385
0.455237
0.435886
0.407358
0.363116
0.321727
0.27402
0.258481
0.243461
0.240265
0.237188
0.236611
0.236211
0.23623
0.236349
0.236633
0.236982
0.237061
0.237188
0.237274
0.237243
0.237157
0.235158
0.217197
0.146988
0.119189
0.116373
0.116124
0.116104
0.116102
0.116102
0.116102
0.116102
0.116102
0.116102
)
;

boundaryField
{
    sides
    {
        type            zeroGradient;
    }
    empty
    {
        type            empty;
    }
}


// ************************************************************************* //
