/*--------------------------------*- C++ -*----------------------------------*\
| =========                 |                                                 |
| \\      /  F ield         | OpenFOAM: The Open Source CFD Toolbox           |
|  \\    /   O peration     | Version:  2312                                  |
|   \\  /    A nd           | Website:  www.openfoam.com                      |
|    \\/     M anipulation  |                                                 |
\*---------------------------------------------------------------------------*/
FoamFile
{
    version     2.0;
    format      ascii;
    arch        "LSB;label=32;scalar=64";
    class       volScalarField;
    location    "0.007";
    object      T;
}
// * * * * * * * * * * * * * * * * * * * * * * * * * * * * * * * * * * * * * //

dimensions      [0 0 0 1 0 0 0];

internalField   nonuniform List<scalar> 
100
(
300
300
300
300
300
300
300
300
300
300
300
300
300
300
300
300
299.999
299.997
299.992
299.976
299.937
299.842
299.63
299.199
298.4
297.06
295.033
292.266
288.833
284.905
280.686
276.456
272.346
268.369
264.494
260.708
256.994
253.346
249.759
246.228
242.75
239.321
235.937
232.594
229.305
226.086
222.959
220.003
217.148
214.269
212.196
211.027
209.612
208.049
207.854
208.067
209.113
209.695
209.723
209.571
209.134
208.784
208.827
209.152
210.13
212.475
217.578
227.128
244.169
271.029
313.227
353.901
389.459
404.317
414.563
418.021
419.799
420.16
420.26
420.225
420.065
419.696
419.192
418.801
418.504
418.197
417.922
416.349
402.507
342.186
303.754
300.293
300.023
300.002
300
300
300
300
300
300
)
;

boundaryField
{
    sides
    {
        type            zeroGradient;
    }
    empty
    {
        type            empty;
    }
}


// ************************************************************************* //
