/*--------------------------------*- C++ -*----------------------------------*\
| =========                 |                                                 |
| \\      /  F ield         | OpenFOAM: The Open Source CFD Toolbox           |
|  \\    /   O peration     | Version:  2312                                  |
|   \\  /    A nd           | Website:  www.openfoam.com                      |
|    \\/     M anipulation  |                                                 |
\*---------------------------------------------------------------------------*/
FoamFile
{
    version     2.0;
    format      ascii;
    arch        "LSB;label=32;scalar=64";
    class       volScalarField;
    location    "0.007";
    object      thermo:e;
}
// * * * * * * * * * * * * * * * * * * * * * * * * * * * * * * * * * * * * * //

dimensions      [0 2 -2 0 0 0 0];

internalField   nonuniform List<scalar> 
100
(
215760
215760
215760
215760
215760
215760
215760
215760
215760
215760
215760
215760
215760
215760
215760
215760
215759
215758
215754
215743
215715
215646
215494
215184
214609
213645
212188
210198
207729
204904
201870
198827
195871
193011
190224
187501
184830
182207
179627
177087
174586
172120
169686
167282
164916
162601
160352
158226
156173
154103
152611
151771
150753
149629
149489
149642
150394
150812
150833
150723
150409
150157
150189
150422
151125
152812
156482
163351
175606
194924
225273
254525
280099
290785
298154
300640
301919
302179
302251
302226
302111
301846
301483
301201
300988
300767
300569
299438
289483
246100
218460
215970
215777
215761
215760
215760
215760
215760
215760
215760
)
;

boundaryField
{
    sides
    {
        type            zeroGradient;
    }
    empty
    {
        type            empty;
    }
}


// ************************************************************************* //
