/*--------------------------------*- C++ -*----------------------------------*\
| =========                 |                                                 |
| \\      /  F ield         | OpenFOAM: The Open Source CFD Toolbox           |
|  \\    /   O peration     | Version:  2312                                  |
|   \\  /    A nd           | Website:  www.openfoam.com                      |
|    \\/     M anipulation  |                                                 |
\*---------------------------------------------------------------------------*/
FoamFile
{
    version     2.0;
    format      ascii;
    arch        "LSB;label=32;scalar=64";
    class       volVectorField;
    location    "0.007";
    object      U;
}
// * * * * * * * * * * * * * * * * * * * * * * * * * * * * * * * * * * * * * //

dimensions      [0 1 -1 0 0 0 0];

internalField   nonuniform List<vector> 
100
(
(1.12134e-13 0 0)
(4.99716e-13 0 0)
(1.93681e-12 0 0)
(1.08029e-11 0 0)
(6.08282e-11 0 0)
(3.32394e-10 0 0)
(1.74218e-09 0 0)
(8.77617e-09 0 0)
(4.24772e-08 0 0)
(1.97344e-07 0 0)
(8.79217e-07 0 0)
(3.75231e-06 0 0)
(1.53217e-05 0 0)
(5.97764e-05 0 0)
(0.000222485 0 0)
(0.000788602 0 0)
(0.00265664 0 0)
(0.0084863 0 0)
(0.0256351 0 0)
(0.072997 0 0)
(0.195215 0 0)
(0.488202 0 0)
(1.13636 0 0)
(2.44997 0 0)
(4.87156 0 0)
(8.90841 0 0)
(14.9763 0 0)
(23.2144 0 0)
(33.399 0 0)
(45.0608 0 0)
(57.6192 0 0)
(70.1086 0 0)
(82.4004 0 0)
(94.4289 0 0)
(106.251 0 0)
(117.914 0 0)
(129.437 0 0)
(140.844 0 0)
(152.149 0 0)
(163.36 0 0)
(174.487 0 0)
(185.539 0 0)
(196.526 0 0)
(207.445 0 0)
(218.265 0 0)
(228.936 0 0)
(239.294 0 0)
(249.479 0 0)
(258.995 0 0)
(267.304 0 0)
(275.665 0 0)
(282.829 0 0)
(285.901 0 0)
(287.211 0 0)
(288.596 0 0)
(289.431 0 0)
(287.875 0 0)
(287.088 0 0)
(286.427 0 0)
(285.834 0 0)
(285.607 0 0)
(285.704 0 0)
(286.044 0 0)
(286.109 0 0)
(286.155 0 0)
(286.417 0 0)
(286.22 0 0)
(286.517 0 0)
(285.733 0 0)
(288.499 0 0)
(282.297 0 0)
(289.79 0 0)
(282.783 0 0)
(287.252 0 0)
(284.893 0 0)
(285.913 0 0)
(285.638 0 0)
(285.902 0 0)
(285.991 0 0)
(286.059 0 0)
(285.977 0 0)
(285.953 0 0)
(286.182 0 0)
(286.109 0 0)
(285.905 0 0)
(285.667 0 0)
(284.83 0 0)
(281.269 0 0)
(252.897 0 0)
(98.8859 0 0)
(10.2646 0 0)
(0.866513 0 0)
(0.0703739 0 0)
(0.00570979 0 0)
(0.000460091 0 0)
(3.69041e-05 0 0)
(2.94672e-06 0 0)
(2.34095e-07 0 0)
(1.85297e-08 0 0)
(1.31984e-09 0 0)
)
;

boundaryField
{
    sides
    {
        type            zeroGradient;
    }
    empty
    {
        type            empty;
    }
}


// ************************************************************************* //
