/*--------------------------------*- C++ -*----------------------------------*\
| =========                 |                                                 |
| \\      /  F ield         | OpenFOAM: The Open Source CFD Toolbox           |
|  \\    /   O peration     | Version:  2312                                  |
|   \\  /    A nd           | Website:  www.openfoam.com                      |
|    \\/     M anipulation  |                                                 |
\*---------------------------------------------------------------------------*/
FoamFile
{
    version     2.0;
    format      ascii;
    arch        "LSB;label=32;scalar=64";
    class       volScalarField;
    location    "0.045";
    object      p;
}
// * * * * * * * * * * * * * * * * * * * * * * * * * * * * * * * * * * * * * //

dimensions      [1 -1 -2 0 0 0 0];

internalField   nonuniform List<scalar> 
100
(
34370.3
34305.7
33996.8
33840.3
33588.1
33400.1
33179.2
32980.5
32774.6
32575.9
32377.6
32182.4
31989.3
31797.9
31609.5
31420.8
31237.8
31049.3
30874.3
30681
30520.4
30312.7
30177.8
29941.1
29847.9
29565.5
29528.5
29190.1
29212.1
28825.2
28886.7
28484.3
28540.1
28178.7
28165.2
27914.8
27760.3
27694.8
27327.7
27519.2
26873.2
27383.4
26412.4
27271.2
25976.1
27152.4
25607.6
26991.2
25347.8
26765
25214.5
26480.3
25192.6
26174.4
25240.3
25898.3
25310.6
25691.9
25371.7
25567.8
25415.2
25513.4
25448
25505.1
25480
25522.6
25516.3
25553.9
25558.1
25594.8
25607.7
25648.4
25675.4
25735
25803
25937
26150.7
26547
27194.4
28199.2
29521.5
31047.1
32522.4
33788.3
34725.7
35385.9
35797.8
36071.1
36225.9
36338.6
36398.4
36455.3
36484.7
36524
36544.8
36579.1
36598.2
36631.3
36650.9
36680.2
)
;

boundaryField
{
    sides
    {
        type            zeroGradient;
    }
    empty
    {
        type            empty;
    }
}


// ************************************************************************* //
