/*--------------------------------*- C++ -*----------------------------------*\
| =========                 |                                                 |
| \\      /  F ield         | OpenFOAM: The Open Source CFD Toolbox           |
|  \\    /   O peration     | Version:  2312                                  |
|   \\  /    A nd           | Website:  www.openfoam.com                      |
|    \\/     M anipulation  |                                                 |
\*---------------------------------------------------------------------------*/
FoamFile
{
    version     2.0;
    format      ascii;
    arch        "LSB;label=32;scalar=64";
    class       volScalarField;
    location    "0.045";
    object      rho;
}
// * * * * * * * * * * * * * * * * * * * * * * * * * * * * * * * * * * * * * //

dimensions      [1 -3 0 0 0 0 0];

internalField   nonuniform List<scalar> 
100
(
0.513188
0.510739
0.507737
0.504846
0.501754
0.498759
0.495709
0.492763
0.489879
0.487123
0.484493
0.482009
0.479671
0.477479
0.475422
0.473495
0.471677
0.469967
0.468329
0.466787
0.465269
0.463858
0.462408
0.461104
0.459686
0.458472
0.457071
0.455922
0.454558
0.453428
0.452156
0.450989
0.449874
0.448625
0.447719
0.446374
0.445708
0.444267
0.44386
0.442333
0.442188
0.440602
0.440671
0.439117
0.43926
0.437915
0.437915
0.436999
0.436647
0.436319
0.435534
0.435791
0.434687
0.435349
0.43419
0.434984
0.434045
0.434746
0.434177
0.434696
0.434484
0.434854
0.43489
0.435186
0.435353
0.43563
0.435857
0.436141
0.436405
0.436713
0.437031
0.437415
0.43788
0.438531
0.439512
0.441158
0.444038
0.449091
0.457462
0.469918
0.485974
0.503623
0.520245
0.533886
0.543905
0.550674
0.555007
0.557704
0.559375
0.560432
0.561132
0.561632
0.562017
0.562344
0.562638
0.562919
0.563192
0.563464
0.563738
0.563936
)
;

boundaryField
{
    sides
    {
        type            zeroGradient;
    }
    empty
    {
        type            empty;
    }
}


// ************************************************************************* //
