/*--------------------------------*- C++ -*----------------------------------*\
| =========                 |                                                 |
| \\      /  F ield         | OpenFOAM: The Open Source CFD Toolbox           |
|  \\    /   O peration     | Version:  2312                                  |
|   \\  /    A nd           | Website:  www.openfoam.com                      |
|    \\/     M anipulation  |                                                 |
\*---------------------------------------------------------------------------*/
FoamFile
{
    version     2.0;
    format      ascii;
    arch        "LSB;label=32;scalar=64";
    class       volScalarField;
    location    "0.045";
    object      thermo:e;
}
// * * * * * * * * * * * * * * * * * * * * * * * * * * * * * * * * * * * * * //

dimensions      [0 2 -2 0 0 0 0];

internalField   nonuniform List<scalar> 
100
(
167425
167911
167383
167567
167343
167406
167321
167314
167248
167175
167059
166908
166715
166478
166208
165888
165557
165157
164801
164310
163983
163362
163146
162323
162318
161207
161499
160051
160652
158919
159706
157889
158591
157018
157260
156332
155700
155836
153911
155525
151924
155365
149833
155252
147831
155000
146182
154403
145118
153347
144724
151900
144880
150297
145321
148837
145774
147731
146082
147035
146229
146669
146281
146509
146309
146460
146348
146468
146404
146510
146478
146581
146580
146702
146761
146973
147223
147772
148606
150013
151858
154109
156274
158209
159603
160638
161239
161685
161893
162091
162155
162264
162284
162364
162371
162442
162449
162517
162525
162598
)
;

boundaryField
{
    sides
    {
        type            zeroGradient;
    }
    empty
    {
        type            empty;
    }
}


// ************************************************************************* //
