/*--------------------------------*- C++ -*----------------------------------*\
| =========                 |                                                 |
| \\      /  F ield         | OpenFOAM: The Open Source CFD Toolbox           |
|  \\    /   O peration     | Version:  2312                                  |
|   \\  /    A nd           | Website:  www.openfoam.com                      |
|    \\/     M anipulation  |                                                 |
\*---------------------------------------------------------------------------*/
FoamFile
{
    version     2.0;
    format      ascii;
    arch        "LSB;label=32;scalar=64";
    class       volVectorField;
    location    "0.045";
    object      U;
}
// * * * * * * * * * * * * * * * * * * * * * * * * * * * * * * * * * * * * * //

dimensions      [0 1 -1 0 0 0 0];

internalField   nonuniform List<vector> 
100
(
(158.29 0 0)
(160.014 0 0)
(162.113 0 0)
(164.044 0 0)
(166.129 0 0)
(168.132 0 0)
(170.215 0 0)
(172.275 0 0)
(174.369 0 0)
(176.464 0 0)
(178.573 0 0)
(180.687 0 0)
(182.807 0 0)
(184.928 0 0)
(187.053 0 0)
(189.173 0 0)
(191.299 0 0)
(193.408 0 0)
(195.536 0 0)
(197.625 0 0)
(199.759 0 0)
(201.815 0 0)
(203.962 0 0)
(205.973 0 0)
(208.135 0 0)
(210.099 0 0)
(212.261 0 0)
(214.196 0 0)
(216.319 0 0)
(218.264 0 0)
(220.294 0 0)
(222.292 0 0)
(224.179 0 0)
(226.262 0 0)
(227.974 0 0)
(230.148 0 0)
(231.67 0 0)
(233.93 0 0)
(235.253 0 0)
(237.58 0 0)
(238.71 0 0)
(241.056 0 0)
(242.041 0 0)
(244.298 0 0)
(245.246 0 0)
(247.248 0 0)
(248.305 0 0)
(249.878 0 0)
(251.159 0 0)
(252.203 0 0)
(253.713 0 0)
(254.264 0 0)
(255.878 0 0)
(256.092 0 0)
(257.609 0 0)
(257.687 0 0)
(258.932 0 0)
(259.024 0 0)
(259.926 0 0)
(260.086 0 0)
(260.687 0 0)
(260.895 0 0)
(261.291 0 0)
(261.505 0 0)
(261.786 0 0)
(261.983 0 0)
(262.203 0 0)
(262.379 0 0)
(262.56 0 0)
(262.708 0 0)
(262.844 0 0)
(262.929 0 0)
(262.954 0 0)
(262.84 0 0)
(262.481 0 0)
(261.638 0 0)
(259.915 0 0)
(256.714 0 0)
(251.399 0 0)
(243.707 0 0)
(234.191 0 0)
(224.191 0 0)
(215.175 0 0)
(208.081 0 0)
(203.094 0 0)
(199.908 0 0)
(198.034 0 0)
(197.029 0 0)
(196.564 0 0)
(196.421 0 0)
(196.467 0 0)
(196.619 0 0)
(196.833 0 0)
(197.079 0 0)
(197.345 0 0)
(197.621 0 0)
(197.903 0 0)
(198.188 0 0)
(198.477 0 0)
(198.708 0 0)
)
;

boundaryField
{
    sides
    {
        type            mywaveTransmissive;
        gamma           1.4;
        value           nonuniform List<vector> 2((198.813 0 0) (157.885 0 0));
    }
    empty
    {
        type            empty;
    }
}


// ************************************************************************* //
