/*--------------------------------*- C++ -*----------------------------------*\
| =========                 |                                                 |
| \\      /  F ield         | OpenFOAM: The Open Source CFD Toolbox           |
|  \\    /   O peration     | Version:  2312                                  |
|   \\  /    A nd           | Website:  www.openfoam.com                      |
|    \\/     M anipulation  |                                                 |
\*---------------------------------------------------------------------------*/
FoamFile
{
    version     2.0;
    format      ascii;
    arch        "LSB;label=32;scalar=64";
    class       volScalarField;
    location    "0.023";
    object      p;
}
// * * * * * * * * * * * * * * * * * * * * * * * * * * * * * * * * * * * * * //

dimensions      [1 -1 -2 0 0 0 0];

internalField   nonuniform List<scalar> 
100
(
60313.7
59735.9
58923.2
58182.1
57422.5
56672.6
55924.6
55181.7
54442.9
53709.9
52980
52260.6
51535.8
50841.5
50105.1
49466.5
48675.7
48150.8
47244.2
46884
45846.6
45610.8
44547.2
44285.3
43354.1
42947.1
42197.8
41667.8
41033.4
40459.7
39873.3
39302.3
38737.7
38181.9
37634.7
37096.1
36566.3
36045.4
35533.6
35031.4
34539.2
34057.3
33586.5
33127.5
32681.4
32249.4
31832.8
31433.4
31053.1
30694
30358.5
30049
29768.1
29517.7
29299.5
29114.2
28961.6
28839.6
28747.1
28676.7
28631.6
28592.1
28583.1
28549
28577.5
28515.7
28601.2
28473.3
28648
28421.1
28698.5
28377.7
28724.3
28375.9
28706.2
28418.2
28646.5
28480.8
28582.4
28556.8
28529.8
28658.1
28468.7
28858.9
28425
29290.9
28456.7
30003.2
28598
30882.3
28953.2
31799.3
29919.5
33141.6
32423.6
35810.3
36565.7
38588
39566.9
39677.6
)
;

boundaryField
{
    sides
    {
        type            zeroGradient;
    }
    empty
    {
        type            empty;
    }
}


// ************************************************************************* //
