/*--------------------------------*- C++ -*----------------------------------*\
| =========                 |                                                 |
| \\      /  F ield         | OpenFOAM: The Open Source CFD Toolbox           |
|  \\    /   O peration     | Version:  2312                                  |
|   \\  /    A nd           | Website:  www.openfoam.com                      |
|    \\/     M anipulation  |                                                 |
\*---------------------------------------------------------------------------*/
FoamFile
{
    version     2.0;
    format      ascii;
    arch        "LSB;label=32;scalar=64";
    class       volScalarField;
    location    "0.023";
    object      T;
}
// * * * * * * * * * * * * * * * * * * * * * * * * * * * * * * * * * * * * * //

dimensions      [0 0 0 1 0 0 0];

internalField   nonuniform List<scalar> 
100
(
268.787
267.46
265.263
263.265
261.208
259.242
257.388
255.682
254.126
252.717
251.419
250.242
249.082
248.094
246.895
246.19
244.665
244.522
242.299
242.993
239.975
241.261
238.054
239.061
236.552
236.653
235.045
234.435
233.318
232.432
231.463
230.525
229.585
228.649
227.718
226.792
225.872
224.957
224.049
223.148
222.255
221.372
220.5
219.64
218.795
217.968
217.161
216.38
215.626
214.906
214.225
213.59
213.008
212.482
212.019
211.619
211.287
211.017
210.821
210.659
210.585
210.458
210.52
210.32
210.621
210.14
210.878
209.848
211.292
209.493
211.681
209.208
211.847
209.333
211.746
209.76
211.244
210.172
210.788
210.86
210.55
211.612
209.695
212.546
208.499
214.99
207.478
218.458
205.833
221.192
205.001
223.667
208.123
225.891
214.691
226.855
223.558
228.77
233.824
235.1
)
;

boundaryField
{
    sides
    {
        type            zeroGradient;
    }
    empty
    {
        type            empty;
    }
}


// ************************************************************************* //
