/*--------------------------------*- C++ -*----------------------------------*\
| =========                 |                                                 |
| \\      /  F ield         | OpenFOAM: The Open Source CFD Toolbox           |
|  \\    /   O peration     | Version:  2312                                  |
|   \\  /    A nd           | Website:  www.openfoam.com                      |
|    \\/     M anipulation  |                                                 |
\*---------------------------------------------------------------------------*/
FoamFile
{
    version     2.0;
    format      ascii;
    arch        "LSB;label=32;scalar=64";
    class       volScalarField;
    location    "0.005";
    object      p;
}
// * * * * * * * * * * * * * * * * * * * * * * * * * * * * * * * * * * * * * //

dimensions      [1 -1 -2 0 0 0 0];

internalField   nonuniform List<scalar> 
100
(
411082
409966
408500
406626
404292
401453
398079
394155
389680
384670
379151
373161
366745
359953
352837
345447
337834
330046
322125
314114
306047
297958
289874
281821
273822
265895
258058
250325
242708
235218
227866
220659
213606
206712
199984
193428
187051
180857
174854
169049
163451
158068
152914
148002
143349
138976
134907
131168
127787
124794
122212
120055
118320
116985
116008
115331
114886
114612
114452
114365
114323
114306
114304
114309
114318
114330
114342
114355
114369
114382
114395
114407
114420
114432
114443
114455
114466
114476
114487
114497
114508
114518
114528
114539
114550
114562
114574
114589
114611
114648
114720
114864
115132
115579
116230
117028
117834
118479
118863
119015
)
;

boundaryField
{
    sides
    {
        type            zeroGradient;
    }
    empty
    {
        type            empty;
    }
}


// ************************************************************************* //
