/*--------------------------------*- C++ -*----------------------------------*\
| =========                 |                                                 |
| \\      /  F ield         | OpenFOAM: The Open Source CFD Toolbox           |
|  \\    /   O peration     | Version:  2212                                  |
|   \\  /    A nd           | Website:  www.openfoam.com                      |
|    \\/     M anipulation  |                                                 |
\*---------------------------------------------------------------------------*/
FoamFile
{
    version     2.0;
    format      ascii;
    arch        "LSB;label=32;scalar=64";
    class       volScalarField;
    location    "0.005";
    object      p;
}
// * * * * * * * * * * * * * * * * * * * * * * * * * * * * * * * * * * * * * //

dimensions      [1 -1 -2 0 0 0 0];

internalField   nonuniform List<scalar> 
100
(
99999.3
99999.3
99999.3
99999.3
99999.3
99999.3
99999.3
99999.3
99999.3
99999.3
99999.3
99999.3
99999.3
99999.3
99999.2
99998.9
99998.2
99996.4
99992.2
99982.9
99963
99922.8
99846
99707.3
99470.3
99087.7
98503.8
97660.6
96505.6
95000.9
93128.9
90895
88325.5
85463.1
82360.4
79074
75660.1
72170.6
68652.1
65144.5
61681.6
58291.8
54998.2
51820.5
48775.4
45877.9
43142.5
40584.6
38221.7
36074.9
34170.1
32536.5
31202
30182.7
29468.6
29016.6
28759.3
28627.2
28564.1
28535.3
28522.9
28518.3
28517.7
28519.4
28522.5
28526.5
28531
28535.9
28540.9
28545.9
28551.3
28557.3
28558.2
28509.5
28227.7
27240
24857.9
20867.3
16293.9
12785.5
10978
10299.7
10086.5
10024.3
10006.7
10001.8
10000.4
10000.1
9999.96
9999.94
9999.93
9999.93
9999.93
9999.93
9999.93
9999.93
9999.93
9999.93
9999.93
9999.93
)
;

boundaryField
{
    sides
    {
        type            zeroGradient;
    }
    empty
    {
        type            empty;
    }
}


// ************************************************************************* //
