/*--------------------------------*- C++ -*----------------------------------*\
| =========                 |                                                 |
| \\      /  F ield         | OpenFOAM: The Open Source CFD Toolbox           |
|  \\    /   O peration     | Version:  2312                                  |
|   \\  /    A nd           | Website:  www.openfoam.com                      |
|    \\/     M anipulation  |                                                 |
\*---------------------------------------------------------------------------*/
FoamFile
{
    version     2.0;
    format      ascii;
    arch        "LSB;label=32;scalar=64";
    class       volScalarField;
    location    "0.005";
    object      p;
}
// * * * * * * * * * * * * * * * * * * * * * * * * * * * * * * * * * * * * * //

dimensions      [1 -1 -2 0 0 0 0];

internalField   nonuniform List<scalar> 
100
(
100207
100207
100207
100207
100207
100207
100207
100207
100207
100207
100207
100207
100207
100207
100207
100206
100206
100204
100200
100190
100170
100129
100051
99910.5
99670.8
99284.3
98695.4
97845.8
96683.5
95170.7
93290.3
91047.8
88470
85599.6
82489.4
79196
75775.5
72280
68755.8
65243
61775.4
58381.2
55083.7
51902.3
48853.8
45953.2
43214.9
40654.2
38288.6
36139.1
34231.5
32594.9
31257.5
30235.5
29519.4
29066.4
28809.2
28678.2
28617
28590.4
28580.1
28577.1
28577.6
28579.8
28583
28586.8
28591.1
28595.6
28600.3
28605
28610
28615.3
28615.6
28567.9
28295.1
27335.2
25000.9
21049.2
16465.1
12900.7
11039.9
10334.7
10111.8
10046.5
10027.9
10022.7
10021.2
10020.8
10020.7
10020.7
10020.7
10020.7
10020.7
10020.7
10020.7
10020.7
10020.7
10020.7
10020.7
10020.7
)
;

boundaryField
{
    sides
    {
        type            zeroGradient;
    }
    empty
    {
        type            empty;
    }
}


// ************************************************************************* //
