/*--------------------------------*- C++ -*----------------------------------*\
| =========                 |                                                 |
| \\      /  F ield         | OpenFOAM: The Open Source CFD Toolbox           |
|  \\    /   O peration     | Version:  2312                                  |
|   \\  /    A nd           | Website:  www.openfoam.com                      |
|    \\/     M anipulation  |                                                 |
\*---------------------------------------------------------------------------*/
FoamFile
{
    version     2.0;
    format      ascii;
    arch        "LSB;label=32;scalar=64";
    class       volScalarField;
    location    "0.005";
    object      rho;
}
// * * * * * * * * * * * * * * * * * * * * * * * * * * * * * * * * * * * * * //

dimensions      [1 -3 0 0 0 0 0];

internalField   nonuniform List<scalar> 
100
(
1.15659
1.1547
1.15221
1.14904
1.14506
1.14022
1.13444
1.12769
1.11996
1.11126
1.10161
1.09108
1.07971
1.06759
1.05478
1.04136
1.02742
1.01302
0.998225
0.98311
0.96773
0.952139
0.936385
0.920513
0.904562
0.888567
0.872561
0.856573
0.840629
0.824753
0.808967
0.793292
0.777748
0.762355
0.747131
0.732097
0.717272
0.702678
0.688339
0.674283
0.660539
0.647145
0.634143
0.621584
0.609528
0.598046
0.58722
0.577143
0.567916
0.559639
0.552398
0.546253
0.541215
0.537232
0.534193
0.531932
0.530257
0.528974
0.527903
0.526889
0.525789
0.524462
0.522746
0.520441
0.517296
0.513006
0.507225
0.499598
0.489812
0.477655
0.463075
0.446212
0.427404
0.407158
0.386086
0.36484
0.344038
0.324212
0.305778
0.289023
0.274109
0.261093
0.249943
0.240562
0.232811
0.226522
0.221511
0.217597
0.214606
0.212379
0.21079
0.209745
0.20919
0.209094
0.209406
0.21001
0.210712
0.211298
0.211643
0.211767
)
;

boundaryField
{
    sides
    {
        type            zeroGradient;
    }
    empty
    {
        type            empty;
    }
}


// ************************************************************************* //
