/*--------------------------------*- C++ -*----------------------------------*\
| =========                 |                                                 |
| \\      /  F ield         | OpenFOAM: The Open Source CFD Toolbox           |
|  \\    /   O peration     | Version:  2312                                  |
|   \\  /    A nd           | Website:  www.openfoam.com                      |
|    \\/     M anipulation  |                                                 |
\*---------------------------------------------------------------------------*/
FoamFile
{
    version     2.0;
    format      ascii;
    arch        "LSB;label=32;scalar=64";
    class       volScalarField;
    location    "0.005";
    object      rho;
}
// * * * * * * * * * * * * * * * * * * * * * * * * * * * * * * * * * * * * * //

dimensions      [1 -3 0 0 0 0 0];

internalField   nonuniform List<scalar> 
100
(
1.16102
1.16102
1.16102
1.16102
1.16102
1.16102
1.16102
1.16102
1.16102
1.16102
1.16102
1.16102
1.16102
1.16102
1.16102
1.16102
1.16101
1.161
1.16096
1.16088
1.16071
1.16037
1.15973
1.15857
1.15658
1.15337
1.14847
1.14138
1.13164
1.1189
1.10297
1.08384
1.06164
1.03669
1.00936
0.980063
0.949242
0.917308
0.884639
0.851575
0.818412
0.785412
0.752802
0.720787
0.689555
0.659289
0.630178
0.602432
0.576294
0.552058
0.530075
0.51074
0.494419
0.481302
0.471191
0.463361
0.45659
0.449444
0.440532
0.428795
0.413712
0.395425
0.374718
0.352815
0.331086
0.310764
0.292764
0.277608
0.265455
0.256171
0.249426
0.244778
0.241722
0.239556
0.236852
0.230552
0.216223
0.191774
0.162278
0.137858
0.124161
0.118653
0.116851
0.116315
0.116161
0.116118
0.116106
0.116103
0.116102
0.116102
0.116102
0.116102
0.116102
0.116102
0.116102
0.116102
0.116102
0.116102
0.116102
0.116102
)
;

boundaryField
{
    sides
    {
        type            zeroGradient;
    }
    empty
    {
        type            empty;
    }
}


// ************************************************************************* //
