/*--------------------------------*- C++ -*----------------------------------*\
| =========                 |                                                 |
| \\      /  F ield         | OpenFOAM: The Open Source CFD Toolbox           |
|  \\    /   O peration     | Version:  2212                                  |
|   \\  /    A nd           | Website:  www.openfoam.com                      |
|    \\/     M anipulation  |                                                 |
\*---------------------------------------------------------------------------*/
FoamFile
{
    version     2.0;
    format      ascii;
    arch        "LSB;label=32;scalar=64";
    class       volScalarField;
    location    "0.005";
    object      rho;
}
// * * * * * * * * * * * * * * * * * * * * * * * * * * * * * * * * * * * * * //

dimensions      [1 -3 0 0 0 0 0];

internalField   nonuniform List<scalar> 10(1.00463 1.00396 0.97642 0.804826 0.581609 0.398121 0.381026 0.244053 0.13585 0.126887);

boundaryField
{
    sides
    {
        type            calculated;
        value           nonuniform List<scalar> 2(0.126842 1.00463);
    }
    empty
    {
        type            empty;
    }
}


// ************************************************************************* //
