/*--------------------------------*- C++ -*----------------------------------*\
| =========                 |                                                 |
| \\      /  F ield         | OpenFOAM: The Open Source CFD Toolbox           |
|  \\    /   O peration     | Version:  2212                                  |
|   \\  /    A nd           | Website:  www.openfoam.com                      |
|    \\/     M anipulation  |                                                 |
\*---------------------------------------------------------------------------*/
FoamFile
{
    version     2.0;
    format      ascii;
    arch        "LSB;label=32;scalar=64";
    class       volScalarField;
    location    "0.005";
    object      rho;
}
// * * * * * * * * * * * * * * * * * * * * * * * * * * * * * * * * * * * * * //

dimensions      [1 -3 0 0 0 0 0];

internalField   nonuniform List<scalar> 
100
(
1.16102
1.16102
1.16102
1.16102
1.16102
1.16102
1.16102
1.16102
1.16102
1.16102
1.16102
1.16102
1.16102
1.16102
1.16102
1.16102
1.16101
1.161
1.16096
1.16088
1.16072
1.16039
1.15975
1.1586
1.15663
1.15344
1.14857
1.14152
1.13183
1.11913
1.10324
1.08414
1.06198
1.03705
1.00973
0.98044
0.94962
0.91768
0.885002
0.851924
0.818746
0.785726
0.753095
0.721057
0.689801
0.659511
0.630376
0.602607
0.576449
0.552196
0.530201
0.510861
0.494539
0.481422
0.471307
0.46346
0.456654
0.449451
0.440462
0.428636
0.413462
0.395098
0.374339
0.352414
0.330692
0.310401
0.292447
0.277345
0.265246
0.25601
0.249305
0.24469
0.241659
0.239503
0.236753
0.230284
0.215641
0.190887
0.161358
0.137222
0.12386
0.118543
0.116816
0.116304
0.116158
0.116117
0.116106
0.116103
0.116102
0.116102
0.116102
0.116102
0.116102
0.116102
0.116102
0.116102
0.116102
0.116102
0.116102
0.116102
)
;

boundaryField
{
    sides
    {
        type            zeroGradient;
    }
    empty
    {
        type            empty;
    }
}


// ************************************************************************* //
