/*--------------------------------*- C++ -*----------------------------------*\
| =========                 |                                                 |
| \\      /  F ield         | OpenFOAM: The Open Source CFD Toolbox           |
|  \\    /   O peration     | Version:  2312                                  |
|   \\  /    A nd           | Website:  www.openfoam.com                      |
|    \\/     M anipulation  |                                                 |
\*---------------------------------------------------------------------------*/
FoamFile
{
    version     2.0;
    format      ascii;
    arch        "LSB;label=32;scalar=64";
    class       volScalarField;
    location    "0.005";
    object      T;
}
// * * * * * * * * * * * * * * * * * * * * * * * * * * * * * * * * * * * * * //

dimensions      [0 0 0 1 0 0 0];

internalField   nonuniform List<scalar> 
100
(
300
300
300
300
300
300
300
300
300
300
300
300
300
300
300
300
299.999
299.997
299.994
299.986
299.968
299.933
299.867
299.746
299.541
299.21
298.704
297.973
296.967
295.648
293.991
291.991
289.654
287.002
284.064
280.875
277.47
273.884
270.151
266.302
262.366
258.368
254.334
250.29
246.26
242.272
238.36
234.564
230.934
227.539
224.466
221.826
219.746
218.355
217.758
218.039
219.315
221.789
225.792
231.758
240.12
251.199
265.084
281.562
300.075
319.741
339.451
358.04
374.493
388.129
398.694
406.34
411.482
414.508
415.238
412.113
401.899
381.513
352.67
325.269
309.062
302.749
300.787
300.221
300.061
300.017
300.005
300.001
300
300
300
300
300
300
300
300
300
300
300
300
)
;

boundaryField
{
    sides
    {
        type            zeroGradient;
    }
    empty
    {
        type            empty;
    }
}


// ************************************************************************* //
