/*--------------------------------*- C++ -*----------------------------------*\
| =========                 |                                                 |
| \\      /  F ield         | OpenFOAM: The Open Source CFD Toolbox           |
|  \\    /   O peration     | Version:  2212                                  |
|   \\  /    A nd           | Website:  www.openfoam.com                      |
|    \\/     M anipulation  |                                                 |
\*---------------------------------------------------------------------------*/
FoamFile
{
    version     2.0;
    format      ascii;
    arch        "LSB;label=32;scalar=64";
    class       volScalarField;
    location    "0.005";
    object      T;
}
// * * * * * * * * * * * * * * * * * * * * * * * * * * * * * * * * * * * * * //

dimensions      [0 0 0 1 0 0 0];

internalField   nonuniform List<scalar> 
100
(
300
300
300
300
300
300
300
300
300
300
300
300
300
300
300
300
299.999
299.998
299.994
299.986
299.969
299.934
299.869
299.75
299.546
299.218
298.716
297.988
296.986
295.672
294.02
292.023
289.69
287.04
284.104
280.916
277.512
273.926
270.193
266.342
262.404
258.404
254.368
250.32
246.287
242.296
238.38
234.58
230.947
227.55
224.476
221.836
219.758
218.372
217.781
218.071
219.358
221.85
225.878
231.877
240.283
251.41
265.347
281.872
300.42
320.103
339.809
358.373
374.786
388.375
398.895
406.503
411.616
414.613
415.284
412.01
401.512
380.762
351.723
324.533
308.713
302.628
300.749
300.21
300.058
300.016
300.004
300.001
300
300
300
300
300
300
300
300
300
300
300
300
)
;

boundaryField
{
    sides
    {
        type            zeroGradient;
    }
    empty
    {
        type            empty;
    }
}


// ************************************************************************* //
