/*--------------------------------*- C++ -*----------------------------------*\
| =========                 |                                                 |
| \\      /  F ield         | OpenFOAM: The Open Source CFD Toolbox           |
|  \\    /   O peration     | Version:  2312                                  |
|   \\  /    A nd           | Website:  www.openfoam.com                      |
|    \\/     M anipulation  |                                                 |
\*---------------------------------------------------------------------------*/
FoamFile
{
    version     2.0;
    format      ascii;
    arch        "LSB;label=32;scalar=64";
    class       volScalarField;
    location    "0.005";
    object      T;
}
// * * * * * * * * * * * * * * * * * * * * * * * * * * * * * * * * * * * * * //

dimensions      [0 0 0 1 0 0 0];

internalField   nonuniform List<scalar> 
100
(
299.237
298.912
298.485
297.938
297.255
296.421
295.427
294.265
292.933
291.431
289.765
287.941
285.97
283.861
281.628
279.281
276.834
274.297
271.681
268.998
266.255
263.462
260.626
257.755
254.855
251.932
248.992
246.038
243.076
240.11
237.144
234.182
231.226
228.282
225.352
222.441
219.553
216.692
213.864
211.074
208.33
205.639
203.013
200.462
198
195.646
193.418
191.34
189.438
187.737
186.263
185.033
184.057
183.329
182.833
182.537
182.409
182.414
182.529
182.743
183.057
183.493
184.091
184.915
186.054
187.629
189.788
192.708
196.581
201.607
207.978
215.862
225.386
236.618
249.557
264.116
280.112
297.269
315.219
333.523
351.701
369.268
385.777
400.857
414.243
425.788
435.467
443.358
449.623
454.483
458.199
461.058
463.358
465.375
467.295
469.152
470.811
472.072
472.83
473.161
)
;

boundaryField
{
    sides
    {
        type            zeroGradient;
    }
    empty
    {
        type            empty;
    }
}


// ************************************************************************* //
