/*--------------------------------*- C++ -*----------------------------------*\
| =========                 |                                                 |
| \\      /  F ield         | OpenFOAM: The Open Source CFD Toolbox           |
|  \\    /   O peration     | Version:  2312                                  |
|   \\  /    A nd           | Website:  www.openfoam.com                      |
|    \\/     M anipulation  |                                                 |
\*---------------------------------------------------------------------------*/
FoamFile
{
    version     2.0;
    format      ascii;
    arch        "LSB;label=32;scalar=64";
    class       volScalarField;
    location    "0.005";
    object      thermo:e;
}
// * * * * * * * * * * * * * * * * * * * * * * * * * * * * * * * * * * * * * //

dimensions      [0 2 -2 0 0 0 0];

internalField   nonuniform List<scalar> 
100
(
533090
532511
531750
530776
529559
528075
526303
524234
521860
519185
516216
512967
509455
505699
501720
497540
493180
488660
484001
479219
474333
469357
464305
459191
454025
448817
443579
438317
433041
427757
422472
417195
411930
406684
401465
396279
391133
386037
380998
376028
371140
366347
361667
357122
352737
348543
344574
340873
337484
334454
331827
329636
327897
326602
325717
325191
324961
324971
325176
325556
326116
326893
327959
329426
331456
334261
338108
343309
350209
359163
370514
384559
401524
421535
444586
470522
499020
529585
561563
594172
626556
657851
687262
714127
737973
758541
775785
789842
801003
809661
816281
821375
825473
829065
832487
835795
838750
840996
842347
842935
)
;

boundaryField
{
    sides
    {
        type            zeroGradient;
    }
    empty
    {
        type            empty;
    }
}


// ************************************************************************* //
