/*--------------------------------*- C++ -*----------------------------------*\
| =========                 |                                                 |
| \\      /  F ield         | OpenFOAM: The Open Source CFD Toolbox           |
|  \\    /   O peration     | Version:  2212                                  |
|   \\  /    A nd           | Website:  www.openfoam.com                      |
|    \\/     M anipulation  |                                                 |
\*---------------------------------------------------------------------------*/
FoamFile
{
    version     2.0;
    format      ascii;
    arch        "LSB;label=32;scalar=64";
    class       volScalarField;
    location    "0.005";
    object      thermo:e;
}
// * * * * * * * * * * * * * * * * * * * * * * * * * * * * * * * * * * * * * //

dimensions      [0 2 -2 0 0 0 0];

internalField   nonuniform List<scalar> 
100
(
215310
215310
215310
215310
215310
215310
215310
215310
215310
215310
215310
215310
215310
215310
215310
215310
215309
215308
215306
215300
215288
215263
215216
215130
214984
214749
214388
213866
213147
212203
211018
209585
207910
206009
203902
201614
199170
196597
193917
191154
188328
185457
182560
179655
176760
173896
171085
168358
165751
163313
161106
159212
157721
156725
156301
156509
157433
159222
162113
166418
172451
180437
190439
202300
215612
229738
243881
257204
268984
278736
286287
291747
295417
297568
298049
295700
288165
273273
252431
232917
221563
217196
215848
215461
215352
215321
215313
215311
215310
215310
215310
215310
215310
215310
215310
215310
215310
215310
215310
215310
)
;

boundaryField
{
    sides
    {
        type            zeroGradient;
    }
    empty
    {
        type            empty;
    }
}


// ************************************************************************* //
