/*--------------------------------*- C++ -*----------------------------------*\
| =========                 |                                                 |
| \\      /  F ield         | OpenFOAM: The Open Source CFD Toolbox           |
|  \\    /   O peration     | Version:  2312                                  |
|   \\  /    A nd           | Website:  www.openfoam.com                      |
|    \\/     M anipulation  |                                                 |
\*---------------------------------------------------------------------------*/
FoamFile
{
    version     2.0;
    format      ascii;
    arch        "LSB;label=32;scalar=64";
    class       volScalarField;
    location    "0.005";
    object      thermo:e;
}
// * * * * * * * * * * * * * * * * * * * * * * * * * * * * * * * * * * * * * //

dimensions      [0 2 -2 0 0 0 0];

internalField   nonuniform List<scalar> 
100
(
215760
215760
215760
215760
215760
215760
215760
215760
215760
215760
215760
215760
215760
215760
215760
215760
215759
215758
215756
215750
215737
215712
215664
215578
215430
215192
214828
214302
213578
212630
211439
210000
208319
206412
204299
202005
199556
196977
194293
191525
188693
185818
182917
180008
177110
174242
171429
168698
166088
163646
161436
159537
158042
157041
156611
156814
157731
159511
162390
166680
172695
180662
190648
202500
215814
229958
244133
257502
269336
279142
286741
292240
295938
298114
298639
296392
289046
274384
253640
233933
222277
217737
216326
215919
215804
215772
215763
215761
215760
215760
215760
215760
215760
215760
215760
215760
215760
215760
215760
215760
)
;

boundaryField
{
    sides
    {
        type            zeroGradient;
    }
    empty
    {
        type            empty;
    }
}


// ************************************************************************* //
