/*--------------------------------*- C++ -*----------------------------------*\
| =========                 |                                                 |
| \\      /  F ield         | OpenFOAM: The Open Source CFD Toolbox           |
|  \\    /   O peration     | Version:  2212                                  |
|   \\  /    A nd           | Website:  www.openfoam.com                      |
|    \\/     M anipulation  |                                                 |
\*---------------------------------------------------------------------------*/
FoamFile
{
    version     2.0;
    format      ascii;
    arch        "LSB;label=32;scalar=64";
    class       volVectorField;
    location    "0.005";
    object      U;
}
// * * * * * * * * * * * * * * * * * * * * * * * * * * * * * * * * * * * * * //

dimensions      [0 1 -1 0 0 0 0];

internalField   nonuniform List<vector> 
100
(
(1.34303e-12 0 0)
(8.28449e-12 0 0)
(4.30358e-11 0 0)
(2.09758e-10 0 0)
(9.73868e-10 0 0)
(4.31955e-09 0 0)
(1.83118e-08 0 0)
(7.42025e-08 0 0)
(2.87407e-07 0 0)
(1.06398e-06 0 0)
(3.7642e-06 0 0)
(1.27247e-05 0 0)
(4.10928e-05 0 0)
(0.000126743 0 0)
(0.000373242 0 0)
(0.00104912 0 0)
(0.00281358 0 0)
(0.00719631 0 0)
(0.0175459 0 0)
(0.0407607 0 0)
(0.0901762 0 0)
(0.189899 0 0)
(0.380515 0 0)
(0.725359 0 0)
(1.31555 0 0)
(2.27122 0 0)
(3.73645 0 0)
(5.86708 0 0)
(8.81319 0 0)
(12.7004 0 0)
(17.6152 0 0)
(23.5979 0 0)
(30.6433 0 0)
(38.7086 0 0)
(47.7238 0 0)
(57.6026 0 0)
(68.2518 0 0)
(79.5776 0 0)
(91.49 0 0)
(103.904 0 0)
(116.742 0 0)
(129.927 0 0)
(143.388 0 0)
(157.051 0 0)
(170.837 0 0)
(184.655 0 0)
(198.394 0 0)
(211.917 0 0)
(225.038 0 0)
(237.519 0 0)
(249.052 0 0)
(259.273 0 0)
(267.818 0 0)
(274.427 0 0)
(279.076 0 0)
(282.017 0 0)
(283.694 0 0)
(284.571 0 0)
(285.015 0 0)
(285.245 0 0)
(285.377 0 0)
(285.464 0 0)
(285.53 0 0)
(285.586 0 0)
(285.637 0 0)
(285.687 0 0)
(285.736 0 0)
(285.787 0 0)
(285.838 0 0)
(285.889 0 0)
(285.945 0 0)
(286.005 0 0)
(285.974 0 0)
(285.221 0 0)
(281.399 0 0)
(268.959 0 0)
(239.891 0 0)
(189.082 0 0)
(122.574 0 0)
(60.8671 0 0)
(23.0678 0 0)
(7.31367 0 0)
(2.13778 0 0)
(0.604149 0 0)
(0.167543 0 0)
(0.0457057 0 0)
(0.0122485 0 0)
(0.00321669 0 0)
(0.000825716 0 0)
(0.000206667 0 0)
(5.03209e-05 0 0)
(1.18953e-05 0 0)
(2.725e-06 0 0)
(6.03977e-07 0 0)
(1.29335e-07 0 0)
(2.67242e-08 0 0)
(5.32209e-09 0 0)
(1.02038e-09 0 0)
(1.88015e-10 0 0)
(3.31137e-11 0 0)
)
;

boundaryField
{
    sides
    {
        type            zeroGradient;
    }
    empty
    {
        type            empty;
    }
}


// ************************************************************************* //
