/*--------------------------------*- C++ -*----------------------------------*\
| =========                 |                                                 |
| \\      /  F ield         | OpenFOAM: The Open Source CFD Toolbox           |
|  \\    /   O peration     | Version:  2312                                  |
|   \\  /    A nd           | Website:  www.openfoam.com                      |
|    \\/     M anipulation  |                                                 |
\*---------------------------------------------------------------------------*/
FoamFile
{
    version     2.0;
    format      ascii;
    arch        "LSB;label=32;scalar=64";
    class       volVectorField;
    location    "0.005";
    object      U;
}
// * * * * * * * * * * * * * * * * * * * * * * * * * * * * * * * * * * * * * //

dimensions      [0 1 -1 0 0 0 0];

internalField   nonuniform List<vector> 
100
(
(2.94843 0 0)
(4.20401 0 0)
(5.85767 0 0)
(7.97909 0 0)
(10.6343 0 0)
(13.8807 0 0)
(17.7641 0 0)
(22.3158 0 0)
(27.5522 0 0)
(33.4751 0 0)
(40.0732 0 0)
(47.3239 0 0)
(55.1966 0 0)
(63.6544 0 0)
(72.657 0 0)
(82.1624 0 0)
(92.1286 0 0)
(102.515 0 0)
(113.282 0 0)
(124.393 0 0)
(135.814 0 0)
(147.515 0 0)
(159.465 0 0)
(171.64 0 0)
(184.016 0 0)
(196.57 0 0)
(209.283 0 0)
(222.137 0 0)
(235.113 0 0)
(248.196 0 0)
(261.371 0 0)
(274.621 0 0)
(287.932 0 0)
(301.287 0 0)
(314.671 0 0)
(328.065 0 0)
(341.449 0 0)
(354.802 0 0)
(368.096 0 0)
(381.303 0 0)
(394.384 0 0)
(407.298 0 0)
(419.99 0 0)
(432.396 0 0)
(444.438 0 0)
(456.023 0 0)
(467.04 0 0)
(477.365 0 0)
(486.861 0 0)
(495.39 0 0)
(502.829 0 0)
(509.091 0 0)
(514.148 0 0)
(518.043 0 0)
(520.891 0 0)
(522.865 0 0)
(524.159 0 0)
(524.964 0 0)
(525.439 0 0)
(525.707 0 0)
(525.851 0 0)
(525.924 0 0)
(525.959 0 0)
(525.974 0 0)
(525.979 0 0)
(525.979 0 0)
(525.979 0 0)
(525.978 0 0)
(525.98 0 0)
(525.983 0 0)
(525.99 0 0)
(525.999 0 0)
(526.01 0 0)
(526.025 0 0)
(526.043 0 0)
(526.063 0 0)
(526.086 0 0)
(526.112 0 0)
(526.141 0 0)
(526.173 0 0)
(526.208 0 0)
(526.245 0 0)
(526.286 0 0)
(526.33 0 0)
(526.376 0 0)
(526.426 0 0)
(526.476 0 0)
(526.519 0 0)
(526.534 0 0)
(526.469 0 0)
(526.218 0 0)
(525.588 0 0)
(524.308 0 0)
(522.118 0 0)
(518.962 0 0)
(515.183 0 0)
(511.522 0 0)
(508.776 0 0)
(507.336 0 0)
(507.011 0 0)
)
;

boundaryField
{
    sides
    {
        type            zeroGradient;
    }
    empty
    {
        type            empty;
    }
}


// ************************************************************************* //
