/*--------------------------------*- C++ -*----------------------------------*\
| =========                 |                                                 |
| \\      /  F ield         | OpenFOAM: The Open Source CFD Toolbox           |
|  \\    /   O peration     | Version:  2312                                  |
|   \\  /    A nd           | Website:  www.openfoam.com                      |
|    \\/     M anipulation  |                                                 |
\*---------------------------------------------------------------------------*/
FoamFile
{
    version     2.0;
    format      ascii;
    arch        "LSB;label=32;scalar=64";
    class       volVectorField;
    location    "0.005";
    object      U;
}
// * * * * * * * * * * * * * * * * * * * * * * * * * * * * * * * * * * * * * //

dimensions      [0 1 -1 0 0 0 0];

internalField   nonuniform List<vector> 
100
(
(1.63264e-12 0 0)
(8.82569e-12 0 0)
(4.50222e-11 0 0)
(2.19098e-10 0 0)
(1.01661e-09 0 0)
(4.50634e-09 0 0)
(1.90892e-08 0 0)
(7.72769e-08 0 0)
(2.98959e-07 0 0)
(1.10523e-06 0 0)
(3.90425e-06 0 0)
(1.31766e-05 0 0)
(4.24794e-05 0 0)
(0.000130786 0 0)
(0.000384447 0 0)
(0.00107862 0 0)
(0.00288733 0 0)
(0.00737131 0 0)
(0.0179398 0 0)
(0.0416013 0 0)
(0.0918756 0 0)
(0.193152 0 0)
(0.386404 0 0)
(0.735446 0 0)
(1.3319 0 0)
(2.2963 0 0)
(3.77293 0 0)
(5.91756 0 0)
(8.87984 0 0)
(12.7848 0 0)
(17.7181 0 0)
(23.7194 0 0)
(30.7829 0 0)
(38.8656 0 0)
(47.8972 0 0)
(57.7914 0 0)
(68.4549 0 0)
(79.7941 0 0)
(91.7189 0 0)
(104.145 0 0)
(116.993 0 0)
(130.188 0 0)
(143.657 0 0)
(157.328 0 0)
(171.12 0 0)
(184.944 0 0)
(198.689 0 0)
(212.217 0 0)
(225.344 0 0)
(237.832 0 0)
(249.374 0 0)
(259.606 0 0)
(268.164 0 0)
(274.786 0 0)
(279.444 0 0)
(282.388 0 0)
(284.061 0 0)
(284.927 0 0)
(285.355 0 0)
(285.568 0 0)
(285.684 0 0)
(285.757 0 0)
(285.814 0 0)
(285.864 0 0)
(285.912 0 0)
(285.96 0 0)
(286.009 0 0)
(286.059 0 0)
(286.109 0 0)
(286.159 0 0)
(286.212 0 0)
(286.267 0 0)
(286.232 0 0)
(285.501 0 0)
(281.805 0 0)
(269.715 0 0)
(241.261 0 0)
(191.129 0 0)
(124.887 0 0)
(62.6547 0 0)
(23.9707 0 0)
(7.64955 0 0)
(2.24656 0 0)
(0.637766 0 0)
(0.17775 0 0)
(0.0487643 0 0)
(0.0131497 0 0)
(0.00347641 0 0)
(0.000898539 0 0)
(0.000226447 0 0)
(5.55064e-05 0 0)
(1.32039e-05 0 0)
(3.04222e-06 0 0)
(6.77718e-07 0 0)
(1.45753e-07 0 0)
(3.02214e-08 0 0)
(6.03433e-09 0 0)
(1.15913e-09 0 0)
(2.14138e-10 0 0)
(3.81708e-11 0 0)
)
;

boundaryField
{
    sides
    {
        type            zeroGradient;
    }
    empty
    {
        type            empty;
    }
}


// ************************************************************************* //
