/*--------------------------------*- C++ -*----------------------------------*\
| =========                 |                                                 |
| \\      /  F ield         | OpenFOAM: The Open Source CFD Toolbox           |
|  \\    /   O peration     | Version:  2312                                  |
|   \\  /    A nd           | Website:  www.openfoam.com                      |
|    \\/     M anipulation  |                                                 |
\*---------------------------------------------------------------------------*/
FoamFile
{
    version     2.0;
    format      ascii;
    arch        "LSB;label=32;scalar=64";
    class       volScalarField;
    location    "0.076";
    object      rho;
}
// * * * * * * * * * * * * * * * * * * * * * * * * * * * * * * * * * * * * * //

dimensions      [1 -3 0 0 0 0 0];

internalField   nonuniform List<scalar> 
100
(
0.425077
0.413981
0.405154
0.397705
0.390711
0.385337
0.379975
0.376327
0.372478
0.370202
0.367704
0.366486
0.365133
0.364717
0.36427
0.364448
0.364659
0.365249
0.365887
0.366725
0.367589
0.368532
0.369461
0.370389
0.371265
0.37209
0.372836
0.373506
0.374086
0.37458
0.374986
0.375312
0.37556
0.375741
0.375861
0.375931
0.375957
0.375952
0.375922
0.375878
0.375827
0.375785
0.375762
0.375788
0.3759
0.376176
0.376748
0.377863
0.379927
0.383567
0.389562
0.398545
0.410463
0.424217
0.437968
0.449964
0.459249
0.46574
0.469911
0.472384
0.473711
0.474292
0.474393
0.474184
0.47377
0.473221
0.472583
0.471894
0.471183
0.470474
0.469788
0.469145
0.468561
0.468046
0.46761
0.467258
0.466994
0.466816
0.466722
0.46671
0.466769
0.466899
0.467081
0.467325
0.467597
0.467922
0.468253
0.468631
0.468995
0.469402
0.469783
0.470205
0.470599
0.471035
0.471452
0.471909
0.472368
0.472865
0.473388
0.473948
)
;

boundaryField
{
    sides
    {
        type            zeroGradient;
    }
    empty
    {
        type            empty;
    }
}


// ************************************************************************* //
