/*--------------------------------*- C++ -*----------------------------------*\
| =========                 |                                                 |
| \\      /  F ield         | OpenFOAM: The Open Source CFD Toolbox           |
|  \\    /   O peration     | Version:  2312                                  |
|   \\  /    A nd           | Website:  www.openfoam.com                      |
|    \\/     M anipulation  |                                                 |
\*---------------------------------------------------------------------------*/
FoamFile
{
    version     2.0;
    format      ascii;
    arch        "LSB;label=32;scalar=64";
    class       volScalarField;
    location    "0.076";
    object      T;
}
// * * * * * * * * * * * * * * * * * * * * * * * * * * * * * * * * * * * * * //

dimensions      [0 0 0 1 0 0 0];

internalField   nonuniform List<scalar> 
100
(
175.417
190.765
184.656
199.538
193.807
206.408
201.812
211.461
208.302
214.983
213.095
217.266
216.233
218.545
217.935
219.008
218.516
218.825
218.301
218.172
217.578
217.217
216.577
216.114
215.469
214.982
214.367
213.902
213.338
212.918
212.414
212.045
211.599
211.278
210.882
210.602
210.247
209.998
209.677
209.451
209.157
208.951
208.683
208.5
208.269
208.133
207.989
207.995
208.107
208.546
209.362
210.817
212.871
215.487
218.207
220.75
222.728
224.207
225.125
225.769
226.113
226.416
226.58
226.808
226.96
227.203
227.384
227.652
227.851
228.122
228.309
228.552
228.693
228.88
228.952
229.063
229.053
229.079
228.988
228.926
228.769
228.617
228.416
228.171
227.954
227.609
227.405
226.949
226.781
226.207
226.089
225.396
225.327
224.527
224.491
223.609
223.58
222.649
222.601
221.656
)
;

boundaryField
{
    sides
    {
        type            zeroGradient;
    }
    empty
    {
        type            empty;
    }
}


// ************************************************************************* //
