/*--------------------------------*- C++ -*----------------------------------*\
| =========                 |                                                 |
| \\      /  F ield         | OpenFOAM: The Open Source CFD Toolbox           |
|  \\    /   O peration     | Version:  2312                                  |
|   \\  /    A nd           | Website:  www.openfoam.com                      |
|    \\/     M anipulation  |                                                 |
\*---------------------------------------------------------------------------*/
FoamFile
{
    version     2.0;
    format      ascii;
    arch        "LSB;label=32;scalar=64";
    class       volVectorField;
    location    "0.076";
    object      U;
}
// * * * * * * * * * * * * * * * * * * * * * * * * * * * * * * * * * * * * * //

dimensions      [0 1 -1 0 0 0 0];

internalField   nonuniform List<vector> 
100
(
(158.661 0 0)
(162.377 0 0)
(165.551 0 0)
(168.079 0 0)
(171.366 0 0)
(173.616 0 0)
(176.936 0 0)
(179.037 0 0)
(182.232 0 0)
(184.289 0 0)
(187.252 0 0)
(189.317 0 0)
(192.007 0 0)
(194.076 0 0)
(196.505 0 0)
(198.543 0 0)
(200.745 0 0)
(202.711 0 0)
(204.721 0 0)
(206.584 0 0)
(208.43 0 0)
(210.173 0 0)
(211.87 0 0)
(213.485 0 0)
(215.045 0 0)
(216.531 0 0)
(217.958 0 0)
(219.317 0 0)
(220.615 0 0)
(221.848 0 0)
(223.02 0 0)
(224.127 0 0)
(225.174 0 0)
(226.156 0 0)
(227.078 0 0)
(227.935 0 0)
(228.732 0 0)
(229.465 0 0)
(230.136 0 0)
(230.743 0 0)
(231.287 0 0)
(231.762 0 0)
(232.162 0 0)
(232.469 0 0)
(232.657 0 0)
(232.663 0 0)
(232.38 0 0)
(231.611 0 0)
(230.034 0 0)
(227.178 0 0)
(222.515 0 0)
(215.718 0 0)
(207.022 0 0)
(197.361 0 0)
(188.027 0 0)
(180.099 0 0)
(174.059 0 0)
(169.847 0 0)
(167.089 0 0)
(165.361 0 0)
(164.303 0 0)
(163.662 0 0)
(163.274 0 0)
(163.036 0 0)
(162.892 0 0)
(162.805 0 0)
(162.759 0 0)
(162.74 0 0)
(162.743 0 0)
(162.765 0 0)
(162.804 0 0)
(162.859 0 0)
(162.928 0 0)
(163.012 0 0)
(163.108 0 0)
(163.217 0 0)
(163.339 0 0)
(163.471 0 0)
(163.617 0 0)
(163.77 0 0)
(163.94 0 0)
(164.113 0 0)
(164.311 0 0)
(164.505 0 0)
(164.733 0 0)
(164.952 0 0)
(165.216 0 0)
(165.464 0 0)
(165.768 0 0)
(166.052 0 0)
(166.397 0 0)
(166.721 0 0)
(167.102 0 0)
(167.467 0 0)
(167.877 0 0)
(168.278 0 0)
(168.703 0 0)
(169.127 0 0)
(169.554 0 0)
(169.986 0 0)
)
;

boundaryField
{
    sides
    {
        type            mywaveTransmissive;
        gamma           1.4;
        value           nonuniform List<vector> 2((169.991 0 0) (162.1 0 0));
    }
    empty
    {
        type            empty;
    }
}


// ************************************************************************* //
