/*--------------------------------*- C++ -*----------------------------------*\
| =========                 |                                                 |
| \\      /  F ield         | OpenFOAM: The Open Source CFD Toolbox           |
|  \\    /   O peration     | Version:  2212                                  |
|   \\  /    A nd           | Website:  www.openfoam.com                      |
|    \\/     M anipulation  |                                                 |
\*---------------------------------------------------------------------------*/
FoamFile
{
    version     2.0;
    format      ascii;
    arch        "LSB;label=32;scalar=64";
    class       volScalarField;
    location    "0.009";
    object      G;
}
// * * * * * * * * * * * * * * * * * * * * * * * * * * * * * * * * * * * * * //

dimensions      [1 0 -3 0 0 0 0];

internalField   nonuniform List<scalar> 
100
(
1760.9
1754.83
1748.14
1740.79
1732.72
1723.88
1714.22
1703.66
1692.17
1679.67
1666.12
1651.48
1635.7
1618.78
1600.69
1581.46
1561.1
1539.66
1517.2
1493.8
1469.53
1444.5
1418.82
1392.6
1365.97
1339.03
1311.93
1284.79
1257.73
1230.88
1204.37
1178.31
1152.84
1128.06
1104.1
1081.08
1059.11
1038.32
1018.81
1000.71
984.129
969.2
956.045
944.79
935.571
928.525
923.796
921.535
921.898
925.05
931.163
940.417
952.998
969.102
988.931
1012.7
1040.62
1072.95
1109.93
1151.85
1199.01
1251.74
1310.42
1375.45
1447.27
1526.32
1613.1
1708.1
1811.81
1924.67
2047.09
2179.37
2321.67
2473.94
2635.87
2806.79
2985.62
3170.82
3360.41
3551.98
3742.86
3930.22
4111.33
4283.7
4445.23
4594.29
4729.71
4850.75
4957.04
5048.46
5125.07
5187.02
5234.51
5267.69
5286.72
5291.66
5282.67
5260.48
5227.53
5189.44
)
;

boundaryField
{
    sides
    {
        type            myMarshakRadiation;
        refValue        nonuniform List<scalar> 2(4712.02 1837.03);
        refGradient     uniform 0;
        valueFraction   nonuniform List<scalar> 2(0.0361446 0.0361446);
        source          uniform 0;
        value           nonuniform List<scalar> 2(5172.18 1763.65);
    }
    empty
    {
        type            empty;
    }
}


// ************************************************************************* //
