/*--------------------------------*- C++ -*----------------------------------*\
| =========                 |                                                 |
| \\      /  F ield         | OpenFOAM: The Open Source CFD Toolbox           |
|  \\    /   O peration     | Version:  2212                                  |
|   \\  /    A nd           | Website:  www.openfoam.com                      |
|    \\/     M anipulation  |                                                 |
\*---------------------------------------------------------------------------*/
FoamFile
{
    version     2.0;
    format      ascii;
    arch        "LSB;label=32;scalar=64";
    class       volScalarField;
    location    "0.009";
    object      p;
}
// * * * * * * * * * * * * * * * * * * * * * * * * * * * * * * * * * * * * * //

dimensions      [1 -1 -2 0 0 0 0];

internalField   nonuniform List<scalar> 
100
(
99176
99167.8
99153.7
99129.9
99091.1
99029.8
98935.7
98796.2
98595.7
98316.3
97939.4
97446.1
96819.4
96045.5
95114.9
94023.5
92772.1
91366.9
89818
88138.7
86344.3
84451.4
82476.7
80436.4
78346
76219.6
74070.3
71909.6
69747.6
67593.7
65455.9
63340.1
61252.3
59197.3
57179.5
55202.3
53269
51382.3
49544.7
47758.4
46026.5
44350.3
42731.9
41173.9
39679.3
38251.4
36894.6
35614.1
34416.4
33309.5
32303.1
31406.4
30629.1
29978.4
29456.9
29059.9
28774.5
28581.4
28458.1
28383.1
28339
28313.2
28297.8
28288.1
28281.6
28277.1
28273.9
28271.7
28270.1
28269
28268.4
28268.1
28268.1
28268.3
28268.8
28269.4
28270.2
28271.1
28272.2
28273.4
28274.8
28276.3
28277.9
28279.8
28281.8
28284
28286.4
28289
28291.7
28294.7
28297.8
28301.1
28305
28310.3
28313.2
28278
28051.1
27223
25171
21577
)
;

boundaryField
{
    sides
    {
        type            zeroGradient;
    }
    empty
    {
        type            empty;
    }
}


// ************************************************************************* //
