/*--------------------------------*- C++ -*----------------------------------*\
| =========                 |                                                 |
| \\      /  F ield         | OpenFOAM: The Open Source CFD Toolbox           |
|  \\    /   O peration     | Version:  2212                                  |
|   \\  /    A nd           | Website:  www.openfoam.com                      |
|    \\/     M anipulation  |                                                 |
\*---------------------------------------------------------------------------*/
FoamFile
{
    version     2.0;
    format      ascii;
    arch        "LSB;label=32;scalar=64";
    class       volScalarField;
    location    "0.009";
    object      rho;
}
// * * * * * * * * * * * * * * * * * * * * * * * * * * * * * * * * * * * * * //

dimensions      [1 -3 0 0 0 0 0];

internalField   nonuniform List<scalar> 
100
(
1.16094
1.16087
1.16075
1.16055
1.16023
1.15972
1.15893
1.15776
1.15608
1.15374
1.15057
1.14643
1.14114
1.13461
1.12672
1.11744
1.10676
1.09471
1.08136
1.06681
1.05117
1.03456
1.01711
0.998952
0.980206
0.960986
0.941397
0.921535
0.901487
0.881333
0.861144
0.840975
0.820879
0.800906
0.781097
0.761492
0.742125
0.723028
0.704233
0.68577
0.667679
0.64998
0.632709
0.615902
0.599605
0.583867
0.568752
0.554334
0.540705
0.527974
0.516278
0.505743
0.496505
0.488671
0.482287
0.477309
0.47359
0.470895
0.468945
0.467459
0.466191
0.464931
0.46349
0.461673
0.459256
0.455967
0.451493
0.445503
0.437705
0.427905
0.416067
0.402344
0.387089
0.370804
0.354074
0.337502
0.321629
0.306897
0.293618
0.281978
0.272041
0.263773
0.25707
0.251773
0.247694
0.244634
0.2424
0.240814
0.23972
0.238985
0.238507
0.238205
0.238024
0.237927
0.237864
0.2376
0.236203
0.231188
0.218659
0.196179
)
;

boundaryField
{
    sides
    {
        type            zeroGradient;
    }
    empty
    {
        type            empty;
    }
}


// ************************************************************************* //
