/*--------------------------------*- C++ -*----------------------------------*\
| =========                 |                                                 |
| \\      /  F ield         | OpenFOAM: The Open Source CFD Toolbox           |
|  \\    /   O peration     | Version:  2212                                  |
|   \\  /    A nd           | Website:  www.openfoam.com                      |
|    \\/     M anipulation  |                                                 |
\*---------------------------------------------------------------------------*/
FoamFile
{
    version     2.0;
    format      ascii;
    arch        "LSB;label=32;scalar=64";
    class       volScalarField;
    location    "0.009";
    object      T;
}
// * * * * * * * * * * * * * * * * * * * * * * * * * * * * * * * * * * * * * //

dimensions      [0 0 0 1 0 0 0];

internalField   nonuniform List<scalar> 
100
(
299.991
299.984
299.971
299.95
299.916
299.862
299.778
299.654
299.476
299.228
298.892
298.452
297.891
297.195
296.354
295.361
294.214
292.915
291.468
289.88
288.162
286.324
284.377
282.333
280.201
277.994
275.719
273.387
271.006
268.582
266.124
263.636
261.125
258.595
256.052
253.499
250.941
248.383
245.828
243.281
240.749
238.235
235.746
233.288
230.87
228.502
226.197
223.97
221.841
219.832
217.974
216.297
214.831
213.608
212.647
211.951
211.506
211.283
211.246
211.362
211.614
212.004
212.561
213.344
214.446
215.997
218.167
221.158
225.187
230.47
237.192
245.491
255.418
266.932
279.88
293.991
308.89
324.118
339.174
353.557
366.828
378.645
388.799
397.218
403.958
409.174
413.077
415.906
417.896
419.258
420.167
420.763
421.151
421.409
421.569
421.51
420.577
416.925
407.351
388.746
)
;

boundaryField
{
    sides
    {
        type            zeroGradient;
    }
    empty
    {
        type            empty;
    }
}


// ************************************************************************* //
