/*--------------------------------*- C++ -*----------------------------------*\
| =========                 |                                                 |
| \\      /  F ield         | OpenFOAM: The Open Source CFD Toolbox           |
|  \\    /   O peration     | Version:  2212                                  |
|   \\  /    A nd           | Website:  www.openfoam.com                      |
|    \\/     M anipulation  |                                                 |
\*---------------------------------------------------------------------------*/
FoamFile
{
    version     2.0;
    format      ascii;
    arch        "LSB;label=32;scalar=64";
    class       volScalarField;
    location    "0.009";
    object      thermo:e;
}
// * * * * * * * * * * * * * * * * * * * * * * * * * * * * * * * * * * * * * //

dimensions      [0 2 -2 0 0 0 0];

internalField   nonuniform List<scalar> 
100
(
213570
213565
213557
213542
213518
213480
213422
213336
213213
213040
212807
212502
212112
211629
211045
210356
209559
208657
207652
206549
205355
204078
202725
201304
199822
198287
196705
195083
193426
191739
190028
188296
186547
184784
183012
181233
179449
177665
175884
174107
172340
170585
168847
167130
165441
163786
162175
160618
159129
157725
156425
155251
154225
153369
152696
152209
151897
151741
151715
151796
151972
152246
152636
153184
153955
155041
156560
158652
161469
165161
169857
175648
182570
190590
199599
209404
219745
230301
240726
250673
259843
268001
275006
280810
285455
289048
291736
293684
295054
295992
296617
297028
297295
297472
297582
297541
296899
294385
287793
274969
)
;

boundaryField
{
    sides
    {
        type            zeroGradient;
    }
    empty
    {
        type            empty;
    }
}


// ************************************************************************* //
