/*--------------------------------*- C++ -*----------------------------------*\
| =========                 |                                                 |
| \\      /  F ield         | OpenFOAM: The Open Source CFD Toolbox           |
|  \\    /   O peration     | Version:  2212                                  |
|   \\  /    A nd           | Website:  www.openfoam.com                      |
|    \\/     M anipulation  |                                                 |
\*---------------------------------------------------------------------------*/
FoamFile
{
    version     2.0;
    format      ascii;
    arch        "LSB;label=32;scalar=64";
    class       volVectorField;
    location    "0.009";
    object      U;
}
// * * * * * * * * * * * * * * * * * * * * * * * * * * * * * * * * * * * * * //

dimensions      [0 1 -1 0 0 0 0];

internalField   nonuniform List<vector> 
100
(
(0.0241516 0 0)
(0.0444767 0 0)
(0.079696 0 0)
(0.13895 0 0)
(0.235644 0 0)
(0.388623 0 0)
(0.623198 0 0)
(0.971752 0 0)
(1.47364 0 0)
(2.17415 0 0)
(3.12242 0 0)
(4.3685 0 0)
(5.95989 0 0)
(7.93808 0 0)
(10.3357 0 0)
(13.1748 0 0)
(16.466 0 0)
(20.2089 0 0)
(24.3937 0 0)
(29.0029 0 0)
(34.0132 0 0)
(39.3978 0 0)
(45.1281 0 0)
(51.1749 0 0)
(57.5095 0 0)
(64.1047 0 0)
(70.9347 0 0)
(77.9758 0 0)
(85.206 0 0)
(92.6035 0 0)
(100.15 0 0)
(107.831 0 0)
(115.63 0 0)
(123.534 0 0)
(131.528 0 0)
(139.601 0 0)
(147.739 0 0)
(155.929 0 0)
(164.159 0 0)
(172.412 0 0)
(180.672 0 0)
(188.924 0 0)
(197.147 0 0)
(205.316 0 0)
(213.402 0 0)
(221.367 0 0)
(229.165 0 0)
(236.739 0 0)
(244.019 0 0)
(250.915 0 0)
(257.326 0 0)
(263.144 0 0)
(268.26 0 0)
(272.581 0 0)
(276.06 0 0)
(278.709 0 0)
(280.607 0 0)
(281.886 0 0)
(282.7 0 0)
(283.195 0 0)
(283.488 0 0)
(283.663 0 0)
(283.771 0 0)
(283.843 0 0)
(283.894 0 0)
(283.932 0 0)
(283.963 0 0)
(283.989 0 0)
(284.01 0 0)
(284.029 0 0)
(284.047 0 0)
(284.063 0 0)
(284.079 0 0)
(284.095 0 0)
(284.11 0 0)
(284.126 0 0)
(284.143 0 0)
(284.16 0 0)
(284.178 0 0)
(284.196 0 0)
(284.216 0 0)
(284.237 0 0)
(284.259 0 0)
(284.282 0 0)
(284.307 0 0)
(284.334 0 0)
(284.362 0 0)
(284.392 0 0)
(284.424 0 0)
(284.457 0 0)
(284.491 0 0)
(284.527 0 0)
(284.572 0 0)
(284.631 0 0)
(284.632 0 0)
(284.049 0 0)
(280.825 0 0)
(269.765 0 0)
(242.433 0 0)
(189.901 0 0)
)
;

boundaryField
{
    sides
    {
        type            zeroGradient;
    }
    empty
    {
        type            empty;
    }
}


// ************************************************************************* //
