/*--------------------------------*- C++ -*----------------------------------*\
| =========                 |                                                 |
| \\      /  F ield         | OpenFOAM: The Open Source CFD Toolbox           |
|  \\    /   O peration     | Version:  2212                                  |
|   \\  /    A nd           | Website:  www.openfoam.com                      |
|    \\/     M anipulation  |                                                 |
\*---------------------------------------------------------------------------*/
FoamFile
{
    version     2.0;
    format      ascii;
    arch        "LSB;label=32;scalar=64";
    class       volScalarField;
    location    "0.009";
    object      p;
}
// * * * * * * * * * * * * * * * * * * * * * * * * * * * * * * * * * * * * * //

dimensions      [1 -1 -2 0 0 0 0];

internalField   nonuniform List<scalar> 
100
(
99991.1
99983.8
99971
99949
99912.5
99853.9
99762.8
99626.1
99427.5
99148.5
98769.3
98269.9
97632.6
96842.8
95890.8
94772.5
93489.4
92048.3
90460.5
88740.5
86904.7
84970.8
82956.3
80878.3
78752.8
76594.4
74416.4
72230.4
70046.7
67874
65720.1
63591.4
61493.6
59431.2
57408.4
55428.5
53494.4
51608.6
49773.4
47990.9
46262.8
44591.3
42978.4
41426.3
39937.9
38516.3
37165.7
35890.9
34698.1
33594.7
32589.1
31690.6
30908.2
30248.8
29715.2
29303.8
29003.4
28796.7
28662.8
28580.8
28533.4
28507.1
28493.2
28486.1
28482.7
28481.3
28481
28481.3
28482
28482.9
28484
28485.1
28486.3
28487.5
28488.7
28489.9
28491.2
28492.6
28494
28495.4
28496.9
28498.5
28500.2
28502
28504
28506.1
28508.4
28510.9
28513.7
28516.6
28519.8
28523.4
28527.9
28534.5
28542.2
28527
28372
27732.2
26009.8
22721.1
)
;

boundaryField
{
    sides
    {
        type            zeroGradient;
    }
    empty
    {
        type            empty;
    }
}


// ************************************************************************* //
