/*--------------------------------*- C++ -*----------------------------------*\
| =========                 |                                                 |
| \\      /  F ield         | OpenFOAM: The Open Source CFD Toolbox           |
|  \\    /   O peration     | Version:  2312                                  |
|   \\  /    A nd           | Website:  www.openfoam.com                      |
|    \\/     M anipulation  |                                                 |
\*---------------------------------------------------------------------------*/
FoamFile
{
    version     2.0;
    format      ascii;
    arch        "LSB;label=32;scalar=64";
    class       volScalarField;
    location    "0.009";
    object      p;
}
// * * * * * * * * * * * * * * * * * * * * * * * * * * * * * * * * * * * * * //

dimensions      [1 -1 -2 0 0 0 0];

internalField   nonuniform List<scalar> 
100
(
292233
287504
282475
277465
272501
267589
262730
257926
253181
248494
243868
239304
234803
230366
225993
221686
217444
213268
209158
205114
201137
197226
193382
189604
185893
182249
178671
175161
171718
168343
165037
161800
158635
155541
152523
149581
146719
143940
141249
138649
136147
133749
131461
129293
127252
125348
123590
121987
120547
119274
118171
117236
116463
115842
115357
114990
114722
114533
114405
114322
114272
114243
114228
114223
114223
114227
114232
114239
114245
114252
114258
114265
114273
114282
114296
114317
114353
114415
114516
114675
114909
115232
115649
116147
116699
117264
117798
118266
118644
118927
119121
119245
119316
119353
119370
119375
119373
119369
119363
119355
)
;

boundaryField
{
    sides
    {
        type            zeroGradient;
    }
    empty
    {
        type            empty;
    }
}


// ************************************************************************* //
