/*--------------------------------*- C++ -*----------------------------------*\
| =========                 |                                                 |
| \\      /  F ield         | OpenFOAM: The Open Source CFD Toolbox           |
|  \\    /   O peration     | Version:  2312                                  |
|   \\  /    A nd           | Website:  www.openfoam.com                      |
|    \\/     M anipulation  |                                                 |
\*---------------------------------------------------------------------------*/
FoamFile
{
    version     2.0;
    format      ascii;
    arch        "LSB;label=32;scalar=64";
    class       volScalarField;
    location    "0.009";
    object      p;
}
// * * * * * * * * * * * * * * * * * * * * * * * * * * * * * * * * * * * * * //

dimensions      [1 -1 -2 0 0 0 0];

internalField   nonuniform List<scalar> 
100
(
100198
100191
100178
100155
100118
100059
99966
99827.2
99625.8
99343.3
98959.8
98455.5
97812.6
97016.6
96058.1
94933.1
93643.3
92195.7
90601.7
88875.8
87034.5
85095.5
83076.3
80994
78864.6
76702.7
74521.3
72332.2
70145.6
67970.3
65813.9
63682.9
61582.8
59518.3
57493.5
55511.7
53575.7
51688.2
49851.3
48067.1
46337.5
44664.4
43049.9
41496.4
40006.4
38583.3
37231.2
35954.8
34760.5
33655.4
32648.2
31748.1
30964.2
30303.5
29769
29357
29056.6
28850.5
28717.5
28636.9
28590.7
28565.7
28552.7
28546.2
28543.2
28542
28541.8
28542.1
28542.7
28543.5
28544.4
28545.4
28546.5
28547.6
28548.7
28549.9
28551.2
28552.4
28553.8
28555.2
28556.6
28558.2
28559.8
28561.6
28563.5
28565.5
28567.8
28570.2
28572.8
28575.7
28578.8
28582.2
28586.5
28592.8
28600.4
28588.1
28446.8
27848.3
26205.7
22999.7
)
;

boundaryField
{
    sides
    {
        type            zeroGradient;
    }
    empty
    {
        type            empty;
    }
}


// ************************************************************************* //
