/*--------------------------------*- C++ -*----------------------------------*\
| =========                 |                                                 |
| \\      /  F ield         | OpenFOAM: The Open Source CFD Toolbox           |
|  \\    /   O peration     | Version:  2312                                  |
|   \\  /    A nd           | Website:  www.openfoam.com                      |
|    \\/     M anipulation  |                                                 |
\*---------------------------------------------------------------------------*/
FoamFile
{
    version     2.0;
    format      ascii;
    arch        "LSB;label=32;scalar=64";
    class       volScalarField;
    location    "0.009";
    object      rho;
}
// * * * * * * * * * * * * * * * * * * * * * * * * * * * * * * * * * * * * * //

dimensions      [1 -3 0 0 0 0 0];

internalField   nonuniform List<scalar> 
100
(
1.16095
1.16089
1.16078
1.16059
1.16029
1.15979
1.15902
1.15787
1.15621
1.15386
1.15067
1.14648
1.14111
1.13446
1.12642
1.11695
1.10605
1.09376
1.08015
1.06534
1.04944
1.03258
1.01491
0.99655
0.977628
0.958262
0.938559
0.918617
0.89852
0.878345
0.858159
0.838022
0.817986
0.798096
0.778394
0.758915
0.739694
0.720759
0.70214
0.683865
0.665962
0.64846
0.631391
0.61479
0.598699
0.583166
0.56825
0.554022
0.540568
0.527991
0.516407
0.505946
0.496733
0.48887
0.482409
0.47732
0.47348
0.47068
0.468663
0.467161
0.465928
0.464748
0.46343
0.461775
0.45956
0.456519
0.452341
0.446693
0.439269
0.42985
0.418369
0.404946
0.3899
0.373713
0.356965
0.340264
0.324169
0.309146
0.295535
0.283544
0.273261
0.264671
0.257679
0.252134
0.247854
0.24464
0.242295
0.240634
0.239496
0.238742
0.238261
0.23797
0.237807
0.237736
0.23772
0.237614
0.236758
0.233181
0.223283
0.203575
)
;

boundaryField
{
    sides
    {
        type            zeroGradient;
    }
    empty
    {
        type            empty;
    }
}


// ************************************************************************* //
