/*--------------------------------*- C++ -*----------------------------------*\
| =========                 |                                                 |
| \\      /  F ield         | OpenFOAM: The Open Source CFD Toolbox           |
|  \\    /   O peration     | Version:  2212                                  |
|   \\  /    A nd           | Website:  www.openfoam.com                      |
|    \\/     M anipulation  |                                                 |
\*---------------------------------------------------------------------------*/
FoamFile
{
    version     2.0;
    format      ascii;
    arch        "LSB;label=32;scalar=64";
    class       volScalarField;
    location    "0.009";
    object      rho;
}
// * * * * * * * * * * * * * * * * * * * * * * * * * * * * * * * * * * * * * //

dimensions      [1 -3 0 0 0 0 0];

internalField   nonuniform List<scalar> 
100
(
1.16095
1.16089
1.16079
1.1606
1.1603
1.15981
1.15906
1.15792
1.15627
1.15395
1.15079
1.14663
1.1413
1.13469
1.12668
1.11725
1.10639
1.09413
1.08055
1.06576
1.04988
1.03304
1.01537
0.997011
0.978088
0.958719
0.939009
0.919057
0.898948
0.87876
0.85856
0.838407
0.818354
0.798447
0.778726
0.759229
0.739989
0.721036
0.702398
0.684105
0.666183
0.648664
0.631578
0.614961
0.598855
0.583308
0.56838
0.554141
0.540679
0.528095
0.516508
0.506045
0.496832
0.48897
0.482509
0.477417
0.47357
0.470759
0.468726
0.467206
0.465953
0.464754
0.463416
0.461741
0.459503
0.456433
0.452217
0.446523
0.439044
0.429566
0.418024
0.404544
0.389452
0.373233
0.356471
0.339773
0.323697
0.308705
0.295134
0.283189
0.272953
0.26441
0.257462
0.251957
0.247712
0.244527
0.242207
0.240566
0.239444
0.238703
0.238232
0.237949
0.237793
0.237727
0.237714
0.237594
0.236656
0.232826
0.222426
0.202145
)
;

boundaryField
{
    sides
    {
        type            zeroGradient;
    }
    empty
    {
        type            empty;
    }
}


// ************************************************************************* //
