/*--------------------------------*- C++ -*----------------------------------*\
| =========                 |                                                 |
| \\      /  F ield         | OpenFOAM: The Open Source CFD Toolbox           |
|  \\    /   O peration     | Version:  2312                                  |
|   \\  /    A nd           | Website:  www.openfoam.com                      |
|    \\/     M anipulation  |                                                 |
\*---------------------------------------------------------------------------*/
FoamFile
{
    version     2.0;
    format      ascii;
    arch        "LSB;label=32;scalar=64";
    class       volScalarField;
    location    "0.009";
    object      rho;
}
// * * * * * * * * * * * * * * * * * * * * * * * * * * * * * * * * * * * * * //

dimensions      [1 -3 0 0 0 0 0];

internalField   nonuniform List<scalar> 
100
(
0.941447
0.932237
0.922369
0.912466
0.902582
0.892725
0.882902
0.873118
0.863377
0.853684
0.844044
0.834459
0.824934
0.815471
0.806073
0.796743
0.787484
0.778297
0.769185
0.760149
0.751191
0.742314
0.733518
0.724806
0.716179
0.707639
0.699189
0.690831
0.682569
0.674404
0.666342
0.658386
0.650543
0.642819
0.63522
0.627757
0.620439
0.613278
0.606288
0.599486
0.592889
0.586519
0.580399
0.574557
0.56902
0.563819
0.558985
0.554548
0.550534
0.546964
0.543848
0.541187
0.538968
0.537162
0.53573
0.534623
0.533787
0.533168
0.532714
0.53238
0.53213
0.531935
0.531773
0.531629
0.531491
0.531351
0.531204
0.531046
0.530872
0.530678
0.530458
0.530209
0.529921
0.529586
0.529193
0.528729
0.528181
0.527532
0.526763
0.525843
0.524721
0.523309
0.521466
0.518988
0.515613
0.511052
0.50503
0.497335
0.487856
0.4766
0.463687
0.449335
0.433828
0.417491
0.400667
0.383694
0.366908
0.350682
0.335667
0.323854
)
;

boundaryField
{
    sides
    {
        type            zeroGradient;
    }
    empty
    {
        type            empty;
    }
}


// ************************************************************************* //
