/*--------------------------------*- C++ -*----------------------------------*\
| =========                 |                                                 |
| \\      /  F ield         | OpenFOAM: The Open Source CFD Toolbox           |
|  \\    /   O peration     | Version:  2312                                  |
|   \\  /    A nd           | Website:  www.openfoam.com                      |
|    \\/     M anipulation  |                                                 |
\*---------------------------------------------------------------------------*/
FoamFile
{
    version     2.0;
    format      ascii;
    arch        "LSB;label=32;scalar=64";
    class       volScalarField;
    location    "0.009";
    object      T;
}
// * * * * * * * * * * * * * * * * * * * * * * * * * * * * * * * * * * * * * //

dimensions      [0 0 0 1 0 0 0];

internalField   nonuniform List<scalar> 
100
(
261.334
259.646
257.833
256.009
254.183
252.356
250.53
248.706
246.884
245.066
243.251
241.44
239.634
237.834
236.04
234.252
232.471
230.698
228.932
227.175
225.426
223.687
221.957
220.237
218.527
216.829
215.141
213.466
211.803
210.154
208.52
206.901
205.298
203.714
202.15
200.608
199.091
197.601
196.141
194.716
193.329
191.986
190.693
189.454
188.279
187.172
186.143
185.199
184.346
183.59
182.934
182.38
181.924
181.561
181.284
181.082
180.943
180.855
180.807
180.789
180.794
180.814
180.847
180.887
180.935
180.988
181.047
181.111
181.18
181.257
181.343
181.439
181.55
181.68
181.836
182.03
182.276
182.599
183.027
183.601
184.369
185.387
186.715
188.415
190.549
193.18
196.375
200.205
204.747
210.082
216.286
223.425
231.551
240.686
250.827
261.933
273.913
286.577
299.381
310.28
)
;

boundaryField
{
    sides
    {
        type            zeroGradient;
    }
    empty
    {
        type            empty;
    }
}


// ************************************************************************* //
