/*--------------------------------*- C++ -*----------------------------------*\
| =========                 |                                                 |
| \\      /  F ield         | OpenFOAM: The Open Source CFD Toolbox           |
|  \\    /   O peration     | Version:  2212                                  |
|   \\  /    A nd           | Website:  www.openfoam.com                      |
|    \\/     M anipulation  |                                                 |
\*---------------------------------------------------------------------------*/
FoamFile
{
    version     2.0;
    format      ascii;
    arch        "LSB;label=32;scalar=64";
    class       volScalarField;
    location    "0.009";
    object      T;
}
// * * * * * * * * * * * * * * * * * * * * * * * * * * * * * * * * * * * * * //

dimensions      [0 0 0 1 0 0 0];

internalField   nonuniform List<scalar> 
100
(
299.993
299.987
299.976
299.957
299.926
299.875
299.797
299.68
299.509
299.27
298.943
298.512
297.96
297.273
296.441
295.457
294.319
293.03
291.593
290.019
288.316
286.496
284.57
282.55
280.448
278.272
276.034
273.742
271.404
269.028
266.619
264.185
261.729
259.258
256.776
254.287
251.795
249.304
246.819
244.343
241.881
239.439
237.021
234.635
232.288
229.991
227.755
225.594
223.527
221.576
219.765
218.125
216.684
215.472
214.505
213.791
213.319
213.063
212.992
213.074
213.292
213.645
214.158
214.881
215.902
217.344
219.368
222.168
225.957
230.95
237.336
245.254
254.768
265.85
278.363
292.057
306.575
321.478
336.277
350.479
363.641
375.412
385.566
394.015
400.795
406.045
409.969
412.801
414.776
416.107
416.975
417.525
417.865
418.078
418.212
418.201
417.577
414.873
407.302
391.498
)
;

boundaryField
{
    sides
    {
        type            zeroGradient;
    }
    empty
    {
        type            empty;
    }
}


// ************************************************************************* //
