/*--------------------------------*- C++ -*----------------------------------*\
| =========                 |                                                 |
| \\      /  F ield         | OpenFOAM: The Open Source CFD Toolbox           |
|  \\    /   O peration     | Version:  2312                                  |
|   \\  /    A nd           | Website:  www.openfoam.com                      |
|    \\/     M anipulation  |                                                 |
\*---------------------------------------------------------------------------*/
FoamFile
{
    version     2.0;
    format      ascii;
    arch        "LSB;label=32;scalar=64";
    class       volScalarField;
    location    "0.009";
    object      T;
}
// * * * * * * * * * * * * * * * * * * * * * * * * * * * * * * * * * * * * * //

dimensions      [0 0 0 1 0 0 0];

internalField   nonuniform List<scalar> 
100
(
299.993
299.986
299.975
299.956
299.924
299.873
299.794
299.675
299.502
299.26
298.93
298.496
297.94
297.25
296.413
295.425
294.284
292.99
291.551
289.974
288.269
286.447
284.52
282.499
280.396
278.221
275.983
273.691
271.354
268.978
266.571
264.138
261.684
259.214
256.733
254.246
251.756
249.267
246.784
244.31
241.85
239.41
236.994
234.61
232.265
229.97
227.735
225.576
223.511
221.56
219.751
218.111
216.671
215.458
214.492
213.779
213.308
213.054
212.985
213.07
213.29
213.644
214.154
214.873
215.886
217.315
219.32
222.096
225.854
230.809
237.151
245.02
254.485
265.518
277.987
291.644
306.136
321.027
335.829
350.048
363.239
375.048
385.248
393.743
400.569
405.862
409.822
412.685
414.685
416.037
416.92
417.481
417.829
418.048
418.187
418.192
417.63
415.114
407.946
392.701
)
;

boundaryField
{
    sides
    {
        type            zeroGradient;
    }
    empty
    {
        type            empty;
    }
}


// ************************************************************************* //
