/*--------------------------------*- C++ -*----------------------------------*\
| =========                 |                                                 |
| \\      /  F ield         | OpenFOAM: The Open Source CFD Toolbox           |
|  \\    /   O peration     | Version:  2212                                  |
|   \\  /    A nd           | Website:  www.openfoam.com                      |
|    \\/     M anipulation  |                                                 |
\*---------------------------------------------------------------------------*/
FoamFile
{
    version     2.0;
    format      ascii;
    arch        "LSB;label=32;scalar=64";
    class       volScalarField;
    location    "0.009";
    object      thermo:e;
}
// * * * * * * * * * * * * * * * * * * * * * * * * * * * * * * * * * * * * * //

dimensions      [0 2 -2 0 0 0 0];

internalField   nonuniform List<scalar> 
100
(
215305
215300
215293
215279
215257
215221
215164
215080
214958
214786
214551
214242
213846
213353
212756
212050
211233
210307
209276
208146
206924
205618
204236
202786
201277
199716
198110
196465
194787
193081
191353
189605
187843
186070
184288
182502
180713
178926
177142
175365
173598
171845
170110
168398
166713
165065
163460
161909
160425
159025
157725
156548
155514
154644
153950
153438
153099
152916
152864
152923
153080
153333
153701
154220
154953
155988
157440
159450
162170
165753
170336
176019
182847
190801
199781
209609
220029
230725
241346
251539
260985
269433
276721
282785
287651
291419
294235
296267
297685
298640
299263
299657
299901
300054
300150
300143
299695
297754
292320
280978
)
;

boundaryField
{
    sides
    {
        type            zeroGradient;
    }
    empty
    {
        type            empty;
    }
}


// ************************************************************************* //
