/*--------------------------------*- C++ -*----------------------------------*\
| =========                 |                                                 |
| \\      /  F ield         | OpenFOAM: The Open Source CFD Toolbox           |
|  \\    /   O peration     | Version:  2312                                  |
|   \\  /    A nd           | Website:  www.openfoam.com                      |
|    \\/     M anipulation  |                                                 |
\*---------------------------------------------------------------------------*/
FoamFile
{
    version     2.0;
    format      ascii;
    arch        "LSB;label=32;scalar=64";
    class       volScalarField;
    location    "0.009";
    object      thermo:e;
}
// * * * * * * * * * * * * * * * * * * * * * * * * * * * * * * * * * * * * * //

dimensions      [0 2 -2 0 0 0 0];

internalField   nonuniform List<scalar> 
100
(
465567
462559
459330
456080
452826
449572
446320
443070
439824
436584
433351
430125
426908
423701
420504
417320
414147
410988
407842
404712
401597
398498
395416
392352
389306
386280
383274
380290
377328
374390
371478
368593
365739
362917
360131
357384
354681
352026
349426
346887
344416
342024
339719
337513
335418
333448
331615
329932
328413
327066
325897
324909
324097
323452
322958
322598
322350
322193
322108
322076
322084
322121
322178
322251
322336
322430
322535
322649
322773
322910
323062
323234
323431
323662
323941
324286
324725
325300
326063
327086
328454
330267
332633
335661
339462
344150
349842
356665
364758
374261
385313
398032
412507
428783
446849
466634
487977
510536
533347
552765
)
;

boundaryField
{
    sides
    {
        type            zeroGradient;
    }
    empty
    {
        type            empty;
    }
}


// ************************************************************************* //
