/*--------------------------------*- C++ -*----------------------------------*\
| =========                 |                                                 |
| \\      /  F ield         | OpenFOAM: The Open Source CFD Toolbox           |
|  \\    /   O peration     | Version:  2312                                  |
|   \\  /    A nd           | Website:  www.openfoam.com                      |
|    \\/     M anipulation  |                                                 |
\*---------------------------------------------------------------------------*/
FoamFile
{
    version     2.0;
    format      ascii;
    arch        "LSB;label=32;scalar=64";
    class       volScalarField;
    location    "0.009";
    object      thermo:e;
}
// * * * * * * * * * * * * * * * * * * * * * * * * * * * * * * * * * * * * * //

dimensions      [0 2 -2 0 0 0 0];

internalField   nonuniform List<scalar> 
100
(
215755
215750
215742
215728
215705
215669
215612
215526
215402
215228
214991
214678
214279
213782
213181
212470
211649
210719
209683
208549
207323
206013
204627
203174
201661
200096
198487
196839
195158
193449
191718
189968
188203
186427
184643
182854
181063
179273
177487
175708
173939
172184
170446
168732
167045
165394
163787
162234
160749
159346
158045
156865
155830
154957
154263
153750
153411
153229
153179
153240
153398
153652
154020
154537
155265
156293
157735
159731
162434
165998
170559
176219
183026
190961
199928
209750
220173
230883
241528
251754
261241
269735
277070
283180
288090
291896
294744
296803
298242
299213
299849
300252
300503
300660
300760
300764
300359
298550
293395
282430
)
;

boundaryField
{
    sides
    {
        type            zeroGradient;
    }
    empty
    {
        type            empty;
    }
}


// ************************************************************************* //
