/*--------------------------------*- C++ -*----------------------------------*\
| =========                 |                                                 |
| \\      /  F ield         | OpenFOAM: The Open Source CFD Toolbox           |
|  \\    /   O peration     | Version:  2312                                  |
|   \\  /    A nd           | Website:  www.openfoam.com                      |
|    \\/     M anipulation  |                                                 |
\*---------------------------------------------------------------------------*/
FoamFile
{
    version     2.0;
    format      ascii;
    arch        "LSB;label=32;scalar=64";
    class       volVectorField;
    location    "0.009";
    object      U;
}
// * * * * * * * * * * * * * * * * * * * * * * * * * * * * * * * * * * * * * //

dimensions      [0 1 -1 0 0 0 0];

internalField   nonuniform List<vector> 
100
(
(165.594 0 0)
(172.058 0 0)
(179.047 0 0)
(186.129 0 0)
(193.269 0 0)
(200.46 0 0)
(207.7 0 0)
(214.985 0 0)
(222.314 0 0)
(229.683 0 0)
(237.091 0 0)
(244.535 0 0)
(252.014 0 0)
(259.526 0 0)
(267.067 0 0)
(274.637 0 0)
(282.234 0 0)
(289.854 0 0)
(297.496 0 0)
(305.158 0 0)
(312.836 0 0)
(320.529 0 0)
(328.232 0 0)
(335.943 0 0)
(343.658 0 0)
(351.373 0 0)
(359.084 0 0)
(366.785 0 0)
(374.473 0 0)
(382.14 0 0)
(389.781 0 0)
(397.388 0 0)
(404.954 0 0)
(412.468 0 0)
(419.921 0 0)
(427.3 0 0)
(434.593 0 0)
(441.783 0 0)
(448.852 0 0)
(455.779 0 0)
(462.541 0 0)
(469.111 0 0)
(475.457 0 0)
(481.546 0 0)
(487.341 0 0)
(492.802 0 0)
(497.89 0 0)
(502.565 0 0)
(506.794 0 0)
(510.548 0 0)
(513.812 0 0)
(516.582 0 0)
(518.873 0 0)
(520.714 0 0)
(522.149 0 0)
(523.231 0 0)
(524.021 0 0)
(524.576 0 0)
(524.952 0 0)
(525.196 0 0)
(525.348 0 0)
(525.436 0 0)
(525.482 0 0)
(525.503 0 0)
(525.508 0 0)
(525.504 0 0)
(525.495 0 0)
(525.485 0 0)
(525.473 0 0)
(525.461 0 0)
(525.45 0 0)
(525.438 0 0)
(525.423 0 0)
(525.401 0 0)
(525.365 0 0)
(525.299 0 0)
(525.18 0 0)
(524.973 0 0)
(524.629 0 0)
(524.091 0 0)
(523.307 0 0)
(522.237 0 0)
(520.881 0 0)
(519.286 0 0)
(517.546 0 0)
(515.787 0 0)
(514.138 0 0)
(512.704 0 0)
(511.542 0 0)
(510.665 0 0)
(510.044 0 0)
(509.628 0 0)
(509.36 0 0)
(509.189 0 0)
(509.075 0 0)
(508.991 0 0)
(508.92 0 0)
(508.855 0 0)
(508.79 0 0)
(508.719 0 0)
)
;

boundaryField
{
    sides
    {
        type            zeroGradient;
    }
    empty
    {
        type            empty;
    }
}


// ************************************************************************* //
