/*--------------------------------*- C++ -*----------------------------------*\
| =========                 |                                                 |
| \\      /  F ield         | OpenFOAM: The Open Source CFD Toolbox           |
|  \\    /   O peration     | Version:  2212                                  |
|   \\  /    A nd           | Website:  www.openfoam.com                      |
|    \\/     M anipulation  |                                                 |
\*---------------------------------------------------------------------------*/
FoamFile
{
    version     2.0;
    format      ascii;
    arch        "LSB;label=32;scalar=64";
    class       volVectorField;
    location    "0.009";
    object      U;
}
// * * * * * * * * * * * * * * * * * * * * * * * * * * * * * * * * * * * * * //

dimensions      [0 1 -1 0 0 0 0];

internalField   nonuniform List<vector> 
100
(
(0.0203401 0 0)
(0.0383427 0 0)
(0.0702015 0 0)
(0.12481 0 0)
(0.215436 0 0)
(0.360998 0 0)
(0.587217 0 0)
(0.92735 0 0)
(1.42216 0 0)
(2.11885 0 0)
(3.06887 0 0)
(4.32472 0 0)
(5.93615 0 0)
(7.94645 0 0)
(10.3893 0 0)
(13.2868 0 0)
(16.6489 0 0)
(20.4737 0 0)
(24.7494 0 0)
(29.456 0 0)
(34.5678 0 0)
(40.0555 0 0)
(45.8883 0 0)
(52.035 0 0)
(58.4651 0 0)
(65.1499 0 0)
(72.0625 0 0)
(79.1783 0 0)
(86.4747 0 0)
(93.9313 0 0)
(101.53 0 0)
(109.253 0 0)
(117.085 0 0)
(125.012 0 0)
(133.021 0 0)
(141.099 0 0)
(149.234 0 0)
(157.413 0 0)
(165.622 0 0)
(173.849 0 0)
(182.078 0 0)
(190.291 0 0)
(198.469 0 0)
(206.588 0 0)
(214.619 0 0)
(222.524 0 0)
(230.262 0 0)
(237.775 0 0)
(244.997 0 0)
(251.845 0 0)
(258.225 0 0)
(264.033 0 0)
(269.164 0 0)
(273.532 0 0)
(277.084 0 0)
(279.826 0 0)
(281.823 0 0)
(283.191 0 0)
(284.072 0 0)
(284.609 0 0)
(284.921 0 0)
(285.094 0 0)
(285.188 0 0)
(285.238 0 0)
(285.265 0 0)
(285.279 0 0)
(285.287 0 0)
(285.292 0 0)
(285.295 0 0)
(285.297 0 0)
(285.299 0 0)
(285.302 0 0)
(285.306 0 0)
(285.31 0 0)
(285.315 0 0)
(285.322 0 0)
(285.329 0 0)
(285.337 0 0)
(285.347 0 0)
(285.358 0 0)
(285.37 0 0)
(285.384 0 0)
(285.4 0 0)
(285.417 0 0)
(285.436 0 0)
(285.457 0 0)
(285.48 0 0)
(285.506 0 0)
(285.533 0 0)
(285.564 0 0)
(285.596 0 0)
(285.634 0 0)
(285.683 0 0)
(285.756 0 0)
(285.82 0 0)
(285.506 0 0)
(283.183 0 0)
(274.284 0 0)
(250.541 0 0)
(201.654 0 0)
)
;

boundaryField
{
    sides
    {
        type            zeroGradient;
    }
    empty
    {
        type            empty;
    }
}


// ************************************************************************* //
