/*--------------------------------*- C++ -*----------------------------------*\
| =========                 |                                                 |
| \\      /  F ield         | OpenFOAM: The Open Source CFD Toolbox           |
|  \\    /   O peration     | Version:  2312                                  |
|   \\  /    A nd           | Website:  www.openfoam.com                      |
|    \\/     M anipulation  |                                                 |
\*---------------------------------------------------------------------------*/
FoamFile
{
    version     2.0;
    format      ascii;
    arch        "LSB;label=32;scalar=64";
    class       volVectorField;
    location    "0.009";
    object      U;
}
// * * * * * * * * * * * * * * * * * * * * * * * * * * * * * * * * * * * * * //

dimensions      [0 1 -1 0 0 0 0];

internalField   nonuniform List<vector> 
100
(
(0.020876 0 0)
(0.0392961 0 0)
(0.0718441 0 0)
(0.127551 0 0)
(0.219862 0 0)
(0.367916 0 0)
(0.59768 0 0)
(0.942658 0 0)
(1.44383 0 0)
(2.14857 0 0)
(3.10837 0 0)
(4.37565 0 0)
(5.99998 0 0)
(8.02433 0 0)
(10.482 0 0)
(13.3947 0 0)
(16.772 0 0)
(20.6116 0 0)
(24.9015 0 0)
(29.6215 0 0)
(34.7457 0 0)
(40.2451 0 0)
(46.0885 0 0)
(52.2448 0 0)
(58.6837 0 0)
(65.3766 0 0)
(72.2966 0 0)
(79.4191 0 0)
(86.7217 0 0)
(94.1839 0 0)
(101.787 0 0)
(109.515 0 0)
(117.352 0 0)
(125.283 0 0)
(133.296 0 0)
(141.378 0 0)
(149.515 0 0)
(157.697 0 0)
(165.909 0 0)
(174.138 0 0)
(182.37 0 0)
(190.586 0 0)
(198.766 0 0)
(206.887 0 0)
(214.92 0 0)
(222.829 0 0)
(230.569 0 0)
(238.085 0 0)
(245.311 0 0)
(252.164 0 0)
(258.55 0 0)
(264.363 0 0)
(269.5 0 0)
(273.873 0 0)
(277.429 0 0)
(280.172 0 0)
(282.166 0 0)
(283.527 0 0)
(284.401 0 0)
(284.928 0 0)
(285.229 0 0)
(285.394 0 0)
(285.481 0 0)
(285.527 0 0)
(285.552 0 0)
(285.565 0 0)
(285.573 0 0)
(285.578 0 0)
(285.582 0 0)
(285.586 0 0)
(285.589 0 0)
(285.593 0 0)
(285.597 0 0)
(285.602 0 0)
(285.608 0 0)
(285.615 0 0)
(285.623 0 0)
(285.631 0 0)
(285.641 0 0)
(285.652 0 0)
(285.665 0 0)
(285.679 0 0)
(285.694 0 0)
(285.711 0 0)
(285.73 0 0)
(285.751 0 0)
(285.773 0 0)
(285.798 0 0)
(285.825 0 0)
(285.854 0 0)
(285.886 0 0)
(285.922 0 0)
(285.969 0 0)
(286.039 0 0)
(286.105 0 0)
(285.832 0 0)
(283.684 0 0)
(275.257 0 0)
(252.359 0 0)
(204.403 0 0)
)
;

boundaryField
{
    sides
    {
        type            zeroGradient;
    }
    empty
    {
        type            empty;
    }
}


// ************************************************************************* //
