/*--------------------------------*- C++ -*----------------------------------*\
| =========                 |                                                 |
| \\      /  F ield         | OpenFOAM: The Open Source CFD Toolbox           |
|  \\    /   O peration     | Version:  2212                                  |
|   \\  /    A nd           | Website:  www.openfoam.com                      |
|    \\/     M anipulation  |                                                 |
\*---------------------------------------------------------------------------*/
FoamFile
{
    version     2.0;
    format      ascii;
    arch        "LSB;label=32;scalar=64";
    class       volScalarField;
    location    "0.007";
    object      p;
}
// * * * * * * * * * * * * * * * * * * * * * * * * * * * * * * * * * * * * * //

dimensions      [1 -1 -2 0 0 0 0];

internalField   nonuniform List<scalar> 
100
(
100000
100000
100000
100000
100000
100000
100000
100000
100000
100000
100000
100000
100000
100000
100000
100000
100000
100000
100000
100000
100000
100000
100000
100000
99995
99654.5
96830.4
91073.2
85473.8
80925.6
77034.2
73481.1
70129.3
66929
63860.9
60914.7
58082.9
55359.3
52738.4
50215.6
47787.3
45450.5
43203
41043.5
38971.3
36986.7
35090.6
33289
31594.8
30033.3
28706.2
27845.1
28534.4
28615.9
28429.2
28319.8
28307
28372.8
28388.2
28384.6
28387.2
28396.6
28384.8
28365.8
28407.9
28425.5
28428.8
28441.6
28451.1
28504
28821.4
28294.6
27880.8
28200.6
28595.5
28969.7
29012
28867.3
28301.3
28006.8
27976.5
27966.7
28057
28613.8
29087.9
29116
29084.3
28926.7
26148.2
14363.8
10052.6
10000
10000
10000
10000
10000
10000
10000
10000
10000
)
;

boundaryField
{
    sides
    {
        type            zeroGradient;
    }
    empty
    {
        type            empty;
    }
}


// ************************************************************************* //
