/*--------------------------------*- C++ -*----------------------------------*\
| =========                 |                                                 |
| \\      /  F ield         | OpenFOAM: The Open Source CFD Toolbox           |
|  \\    /   O peration     | Version:  2212                                  |
|   \\  /    A nd           | Website:  www.openfoam.com                      |
|    \\/     M anipulation  |                                                 |
\*---------------------------------------------------------------------------*/
FoamFile
{
    version     2.0;
    format      ascii;
    arch        "LSB;label=32;scalar=64";
    class       volScalarField;
    location    "0.007";
    object      p;
}
// * * * * * * * * * * * * * * * * * * * * * * * * * * * * * * * * * * * * * //

dimensions      [1 -1 -2 0 0 0 0];

internalField   nonuniform List<scalar> 
100
(
100000
100000
100000
99999.9
99999.9
99999.6
99999.2
99998.1
99996
99991.5
99982.8
99966.3
99936.5
99884.6
99797.9
99659.1
99445.7
99130.8
98684.7
98077.4
97281.1
96274
95041.9
93580.2
91893.3
89994.2
87902.3
85641.6
83238.6
80720.6
78114.2
75444.6
72734.8
70005.4
67274.5
64557.8
61868.6
59218.2
56616.3
54070.6
51587.9
49173.6
46832.4
44568.4
42385.2
40286.6
38277
36362.1
34550.5
32857.1
31309.5
29965.9
28958.4
28543.8
28490.8
28476.8
28467.5
28460.6
28455.5
28451.9
28449.7
28449.2
28450
28451.9
28454.4
28457.2
28460.3
28463.5
28466.9
28470.3
28473.7
28477.2
28480.7
28484.3
28487.9
28491.5
28494.8
28497.6
28499.1
28497.9
28490.5
28470.4
28423.3
28320.6
28105.1
27667.7
26815.1
25257.5
22704.4
19181
15391.4
12452.6
10881.5
10273.6
10079.6
10022.6
10006.4
10001.8
10000.5
10000.1
)
;

boundaryField
{
    sides
    {
        type            zeroGradient;
    }
    empty
    {
        type            empty;
    }
}


// ************************************************************************* //
