/*--------------------------------*- C++ -*----------------------------------*\
| =========                 |                                                 |
| \\      /  F ield         | OpenFOAM: The Open Source CFD Toolbox           |
|  \\    /   O peration     | Version:  2312                                  |
|   \\  /    A nd           | Website:  www.openfoam.com                      |
|    \\/     M anipulation  |                                                 |
\*---------------------------------------------------------------------------*/
FoamFile
{
    version     2.0;
    format      ascii;
    arch        "LSB;label=32;scalar=64";
    class       volScalarField;
    location    "0.007";
    object      p;
}
// * * * * * * * * * * * * * * * * * * * * * * * * * * * * * * * * * * * * * //

dimensions      [1 -1 -2 0 0 0 0];

internalField   nonuniform List<scalar> 
100
(
86369.5
85007.1
83617.3
82200
80760.4
79303.3
77832.9
76353.4
74868.2
73380.7
71893.9
70410.2
68932.2
67461.8
66000.9
64551.3
63114.3
61691.4
60283.5
58891.8
57517.2
56160.4
54822.1
53503
52203.5
50924.2
49665.4
48427.5
47210.9
46015.8
44842.5
43691.3
42562.4
41456.2
40372.9
39313.1
38277
37265.4
36279
35318.9
34386.3
33483.4
32612.8
31778.3
30985.5
30242.3
29560.4
28955.7
28449.4
28063.9
27812.9
27684.2
27634.8
27617.2
27608.1
27602.6
27599.5
27598.2
27598.2
27599.1
27600.6
27602.5
27604.6
27606.9
27609.1
27611.4
27613.6
27615.7
27617.7
27619.7
27621.6
27623.5
27625.4
27627.2
27628.9
27630.6
27632.2
27633.8
27635.5
27637.3
27639.8
27644.4
27653.5
27671.2
27702.9
27753
27822.8
27907.6
27997.3
28080
28146.2
28192.4
28220.4
28235.9
28244.8
28252.2
28261.6
28274.9
28293.8
28351.7
)
;

boundaryField
{
    sides
    {
        type            zeroGradient;
    }
    empty
    {
        type            empty;
    }
}


// ************************************************************************* //
