/*--------------------------------*- C++ -*----------------------------------*\
| =========                 |                                                 |
| \\      /  F ield         | OpenFOAM: The Open Source CFD Toolbox           |
|  \\    /   O peration     | Version:  2312                                  |
|   \\  /    A nd           | Website:  www.openfoam.com                      |
|    \\/     M anipulation  |                                                 |
\*---------------------------------------------------------------------------*/
FoamFile
{
    version     2.0;
    format      ascii;
    arch        "LSB;label=32;scalar=64";
    class       volScalarField;
    location    "0.007";
    object      p;
}
// * * * * * * * * * * * * * * * * * * * * * * * * * * * * * * * * * * * * * //

dimensions      [1 -1 -2 0 0 0 0];

internalField   nonuniform List<scalar> 
100
(
100000
100000
100000
99999.9
99999.9
99999.7
99999.2
99998.2
99996
99991.6
99983
99966.8
99937.5
99886.4
99801
99664.2
99453.6
99142.8
98702
98101.3
97312.9
96314.7
95092.4
93640.8
91964.3
90075.3
87992.9
85741
83345.9
80834.8
78234.3
75569.6
72863.8
70137.5
67408.9
64693.7
62005.4
59355.4
56753.3
54207.1
51723.4
49307.7
46964.9
44698.8
42513.3
40411.9
38399
36480
34663.2
32962.6
31404.6
30044.5
29010.3
28571.1
28513.1
28497.8
28488.3
28482.4
28479.1
28477.5
28477.1
28477.7
28478.9
28480.7
28482.9
28485.5
28488.2
28491.2
28494.2
28497.4
28500.6
28503.8
28507.1
28510.5
28513.8
28517.1
28520.2
28522.7
28523.9
28522.2
28514.2
28493.1
28444.5
28339.3
28119.5
27674.7
26809.7
25233.1
22656.5
19115.1
15327.4
12410.4
10862.4
10266.9
10077.6
10022
10006.2
10001.7
10000.5
10000.1
)
;

boundaryField
{
    sides
    {
        type            zeroGradient;
    }
    empty
    {
        type            empty;
    }
}


// ************************************************************************* //
