/*--------------------------------*- C++ -*----------------------------------*\
| =========                 |                                                 |
| \\      /  F ield         | OpenFOAM: The Open Source CFD Toolbox           |
|  \\    /   O peration     | Version:  2312                                  |
|   \\  /    A nd           | Website:  www.openfoam.com                      |
|    \\/     M anipulation  |                                                 |
\*---------------------------------------------------------------------------*/
FoamFile
{
    version     2.0;
    format      ascii;
    arch        "LSB;label=32;scalar=64";
    class       volScalarField;
    location    "0.007";
    object      rho;
}
// * * * * * * * * * * * * * * * * * * * * * * * * * * * * * * * * * * * * * //

dimensions      [1 -3 0 0 0 0 0];

internalField   nonuniform List<scalar> 
100
(
1.15862
1.15862
1.15862
1.15862
1.15862
1.15862
1.15862
1.15861
1.15859
1.15855
1.15848
1.15835
1.15811
1.15768
1.15698
1.15584
1.15409
1.15151
1.14785
1.14284
1.13626
1.12789
1.11761
1.10534
1.09109
1.07494
1.05702
1.03748
1.01654
0.994389
0.971235
0.947274
0.922691
0.897653
0.872312
0.846802
0.821241
0.795734
0.77037
0.745229
0.720382
0.695889
0.671808
0.648191
0.625089
0.602558
0.580661
0.559478
0.539125
0.519789
0.501805
0.485857
0.473499
0.467959
0.466793
0.46602
0.465167
0.464141
0.462818
0.461005
0.458419
0.454672
0.44929
0.441779
0.431744
0.419008
0.40371
0.386322
0.367585
0.348381
0.329588
0.311969
0.296087
0.282292
0.270724
0.261353
0.25402
0.24848
0.244442
0.241599
0.239651
0.238307
0.237278
0.236229
0.234699
0.231944
0.226729
0.217212
0.20143
0.179152
0.154317
0.134099
0.122672
0.118028
0.1165
0.116044
0.115913
0.115877
0.115866
0.115863
)
;

boundaryField
{
    sides
    {
        type            calculated;
        value           nonuniform List<scalar> 2(0.115863 1.15862);
    }
    empty
    {
        type            empty;
    }
}


// ************************************************************************* //
