/*--------------------------------*- C++ -*----------------------------------*\
| =========                 |                                                 |
| \\      /  F ield         | OpenFOAM: The Open Source CFD Toolbox           |
|  \\    /   O peration     | Version:  2212                                  |
|   \\  /    A nd           | Website:  www.openfoam.com                      |
|    \\/     M anipulation  |                                                 |
\*---------------------------------------------------------------------------*/
FoamFile
{
    version     2.0;
    format      ascii;
    arch        "LSB;label=32;scalar=64";
    class       volScalarField;
    location    "0.007";
    object      rho;
}
// * * * * * * * * * * * * * * * * * * * * * * * * * * * * * * * * * * * * * //

dimensions      [1 -3 0 0 0 0 0];

internalField   nonuniform List<scalar> 
100
(
1.16103
1.16103
1.16103
1.16103
1.16103
1.16103
1.16102
1.16101
1.16099
1.16096
1.16089
1.16075
1.1605
1.16008
1.15936
1.15821
1.15645
1.15384
1.15014
1.1451
1.13847
1.13005
1.11971
1.10739
1.09309
1.07689
1.05892
1.03935
1.01838
0.996212
0.973044
0.949075
0.924489
0.899452
0.874115
0.848611
0.823058
0.797559
0.772203
0.74707
0.722229
0.697742
0.673665
0.650051
0.626953
0.604425
0.582534
0.561362
0.541031
0.521737
0.503833
0.488038
0.47596
0.470691
0.469567
0.468792
0.467917
0.466844
0.465448
0.463531
0.460806
0.456875
0.451252
0.443439
0.433045
0.419912
0.40421
0.386442
0.367377
0.347913
0.328935
0.311198
0.295257
0.281445
0.269889
0.260547
0.25325
0.247746
0.243742
0.24093
0.239007
0.237686
0.23668
0.235659
0.23417
0.231482
0.22638
0.217043
0.201514
0.179498
0.154813
0.134568
0.123034
0.118314
0.116755
0.116289
0.116155
0.116117
0.116107
0.116104
)
;

boundaryField
{
    sides
    {
        type            calculated;
        value           nonuniform List<scalar> 2(0.116104 1.16103);
    }
    empty
    {
        type            empty;
    }
}


// ************************************************************************* //
