/*--------------------------------*- C++ -*----------------------------------*\
| =========                 |                                                 |
| \\      /  F ield         | OpenFOAM: The Open Source CFD Toolbox           |
|  \\    /   O peration     | Version:  2212                                  |
|   \\  /    A nd           | Website:  www.openfoam.com                      |
|    \\/     M anipulation  |                                                 |
\*---------------------------------------------------------------------------*/
FoamFile
{
    version     2.0;
    format      ascii;
    arch        "LSB;label=32;scalar=64";
    class       volScalarField;
    location    "0.007";
    object      rho;
}
// * * * * * * * * * * * * * * * * * * * * * * * * * * * * * * * * * * * * * //

dimensions      [1 -3 0 0 0 0 0];

internalField   nonuniform List<scalar> 
100
(
1.16103
1.16103
1.16103
1.16103
1.16103
1.16103
1.16103
1.16103
1.16103
1.16103
1.16103
1.16103
1.16103
1.16103
1.16103
1.16103
1.16103
1.16103
1.16103
1.16103
1.16103
1.16103
1.16103
1.16103
1.16099
1.15817
1.13471
1.08642
1.03865
0.999159
0.964847
0.93307
0.902677
0.873259
0.844668
0.816834
0.789707
0.763251
0.737431
0.712223
0.687608
0.663573
0.640116
0.617241
0.594958
0.573292
0.552275
0.531996
0.512634
0.494521
0.478906
0.46866
0.476699
0.477851
0.475709
0.474309
0.474269
0.475061
0.475376
0.475611
0.476265
0.476934
0.47689
0.476493
0.47631
0.474369
0.468731
0.455039
0.425111
0.373696
0.312573
0.258948
0.234219
0.23125
0.232885
0.235575
0.236333
0.236382
0.233829
0.232538
0.232654
0.232845
0.233644
0.237258
0.240335
0.240776
0.240988
0.240478
0.224125
0.146271
0.116477
0.116103
0.116103
0.116103
0.116103
0.116103
0.116103
0.116103
0.116103
0.116103
)
;

boundaryField
{
    sides
    {
        type            calculated;
        value           nonuniform List<scalar> 2(0.116103 1.16103);
    }
    empty
    {
        type            empty;
    }
}


// ************************************************************************* //
