/*--------------------------------*- C++ -*----------------------------------*\
| =========                 |                                                 |
| \\      /  F ield         | OpenFOAM: The Open Source CFD Toolbox           |
|  \\    /   O peration     | Version:  2312                                  |
|   \\  /    A nd           | Website:  www.openfoam.com                      |
|    \\/     M anipulation  |                                                 |
\*---------------------------------------------------------------------------*/
FoamFile
{
    version     2.0;
    format      ascii;
    arch        "LSB;label=32;scalar=64";
    class       volScalarField;
    location    "0.007";
    object      rho;
}
// * * * * * * * * * * * * * * * * * * * * * * * * * * * * * * * * * * * * * //

dimensions      [1 -3 0 0 0 0 0];

internalField   nonuniform List<scalar> 
100
(
0.25691
0.254466
0.251953
0.24937
0.246727
0.24403
0.241289
0.238508
0.235695
0.232855
0.229992
0.227112
0.224219
0.221315
0.218406
0.215493
0.212579
0.209667
0.20676
0.20386
0.200968
0.198086
0.195217
0.192361
0.18952
0.186695
0.183889
0.181101
0.178333
0.175586
0.172862
0.170161
0.167486
0.164836
0.162215
0.159622
0.157061
0.154534
0.152043
0.149593
0.147188
0.144834
0.142541
0.140319
0.138187
0.136168
0.134296
0.132621
0.131204
0.130114
0.129393
0.12901
0.128848
0.128773
0.12872
0.128675
0.128634
0.128595
0.128557
0.128517
0.128475
0.128428
0.128375
0.128314
0.128242
0.128156
0.12805
0.127918
0.127748
0.127527
0.127233
0.12684
0.126312
0.125606
0.124672
0.123454
0.121897
0.119953
0.117584
0.114774
0.111532
0.107896
0.10393
0.0997209
0.095372
0.0909875
0.0866624
0.082474
0.0784805
0.0747254
0.0712425
0.0680593
0.0651951
0.0626596
0.060451
0.0585575
0.0569602
0.0556397
0.0545919
0.0539255
)
;

boundaryField
{
    sides
    {
        type            calculated;
        value           nonuniform List<scalar> 2(0.0539255 0.25691);
    }
    empty
    {
        type            empty;
    }
}


// ************************************************************************* //
