/*--------------------------------*- C++ -*----------------------------------*\
| =========                 |                                                 |
| \\      /  F ield         | OpenFOAM: The Open Source CFD Toolbox           |
|  \\    /   O peration     | Version:  2212                                  |
|   \\  /    A nd           | Website:  www.openfoam.com                      |
|    \\/     M anipulation  |                                                 |
\*---------------------------------------------------------------------------*/
FoamFile
{
    version     2.0;
    format      ascii;
    arch        "LSB;label=32;scalar=64";
    class       volScalarField;
    location    "0.007";
    object      T;
}
// * * * * * * * * * * * * * * * * * * * * * * * * * * * * * * * * * * * * * //

dimensions      [0 0 0 1 0 0 0];

internalField   nonuniform List<scalar> 
100
(
300
300
300
300
300
300
299.999
299.998
299.996
299.993
299.985
299.971
299.945
299.9
299.825
299.704
299.518
299.245
298.856
298.325
297.627
296.74
295.647
294.339
292.815
291.077
289.135
287.002
284.693
282.226
279.616
276.88
274.034
271.093
268.069
264.974
261.82
258.617
255.372
252.095
248.792
245.472
242.14
238.805
235.474
232.157
228.866
225.616
222.432
219.352
216.448
213.864
211.918
211.223
211.334
211.58
211.907
212.342
212.941
213.794
215.042
216.888
219.598
223.481
228.865
236.047
245.243
256.548
269.893
285.026
301.507
318.731
335.981
352.514
367.654
380.884
391.905
400.65
407.254
411.99
415.197
417.208
418.289
418.583
418.04
416.313
412.577
405.329
392.437
372.2
346.287
322.318
308.054
302.446
300.7
300.197
300.055
300.015
300.004
300.001
)
;

boundaryField
{
    sides
    {
        type            zeroGradient;
    }
    empty
    {
        type            empty;
    }
}


// ************************************************************************* //
