/*--------------------------------*- C++ -*----------------------------------*\
| =========                 |                                                 |
| \\      /  F ield         | OpenFOAM: The Open Source CFD Toolbox           |
|  \\    /   O peration     | Version:  2212                                  |
|   \\  /    A nd           | Website:  www.openfoam.com                      |
|    \\/     M anipulation  |                                                 |
\*---------------------------------------------------------------------------*/
FoamFile
{
    version     2.0;
    format      ascii;
    arch        "LSB;label=32;scalar=64";
    class       volScalarField;
    location    "0.007";
    object      T;
}
// * * * * * * * * * * * * * * * * * * * * * * * * * * * * * * * * * * * * * //

dimensions      [0 0 0 1 0 0 0];

internalField   nonuniform List<scalar> 
100
(
300
300
300
300
300
300
300
300
300
300
300
300
300
300
300
300
300
300
300
300
300
300
300
300
299.996
299.702
297.229
291.982
286.635
282.108
278.092
274.3
270.602
266.953
263.337
259.748
256.18
252.631
249.097
245.576
242.067
238.569
235.082
231.608
228.151
224.716
221.309
217.949
214.67
211.535
208.78
206.945
208.492
208.583
208.155
207.967
207.89
208.025
208
207.872
207.605
207.383
207.315
207.349
207.737
208.716
211.251
217.706
233.109
265.676
321.164
380.589
414.618
424.757
427.682
428.332
427.579
425.359
421.571
419.503
418.84
418.349
418.265
420.066
421.56
421.194
420.367
418.974
406.365
342.039
300.61
300
300
300
300
300
300
300
300
300
)
;

boundaryField
{
    sides
    {
        type            zeroGradient;
    }
    empty
    {
        type            empty;
    }
}


// ************************************************************************* //
