/*--------------------------------*- C++ -*----------------------------------*\
| =========                 |                                                 |
| \\      /  F ield         | OpenFOAM: The Open Source CFD Toolbox           |
|  \\    /   O peration     | Version:  2312                                  |
|   \\  /    A nd           | Website:  www.openfoam.com                      |
|    \\/     M anipulation  |                                                 |
\*---------------------------------------------------------------------------*/
FoamFile
{
    version     2.0;
    format      ascii;
    arch        "LSB;label=32;scalar=64";
    class       volScalarField;
    location    "0.007";
    object      T;
}
// * * * * * * * * * * * * * * * * * * * * * * * * * * * * * * * * * * * * * //

dimensions      [0 0 0 1 0 0 0];

internalField   nonuniform List<scalar> 
100
(
300
300
300
300
300
300
299.999
299.998
299.997
299.993
299.985
299.972
299.946
299.903
299.829
299.712
299.531
299.264
298.885
298.367
297.685
296.816
295.746
294.464
292.968
291.262
289.354
287.257
284.986
282.556
279.986
277.29
274.485
271.585
268.602
265.548
262.435
259.272
256.068
252.83
249.567
246.285
242.992
239.694
236.399
233.117
229.858
226.639
223.482
220.424
217.531
214.941
212.959
212.218
212.316
212.555
212.873
213.3
213.884
214.713
215.922
217.705
220.323
224.083
229.309
236.3
245.278
256.344
269.44
284.324
300.569
317.582
334.655
351.05
366.093
379.263
390.255
398.991
405.599
410.346
413.566
415.59
416.682
416.983
416.447
414.728
411.005
403.786
390.959
370.867
345.236
321.68
307.781
302.356
300.673
300.19
300.053
300.015
300.004
300.001
)
;

boundaryField
{
    sides
    {
        type            zeroGradient;
    }
    empty
    {
        type            empty;
    }
}


// ************************************************************************* //
