/*--------------------------------*- C++ -*----------------------------------*\
| =========                 |                                                 |
| \\      /  F ield         | OpenFOAM: The Open Source CFD Toolbox           |
|  \\    /   O peration     | Version:  2312                                  |
|   \\  /    A nd           | Website:  www.openfoam.com                      |
|    \\/     M anipulation  |                                                 |
\*---------------------------------------------------------------------------*/
FoamFile
{
    version     2.0;
    format      ascii;
    arch        "LSB;label=32;scalar=64";
    class       volScalarField;
    location    "0.007";
    object      T;
}
// * * * * * * * * * * * * * * * * * * * * * * * * * * * * * * * * * * * * * //

dimensions      [0 0 0 1 0 0 0];

internalField   nonuniform List<scalar> 
100
(
283.037
281.248
279.409
277.518
275.579
273.597
271.575
269.518
267.43
265.314
263.173
261.011
258.829
256.631
254.419
252.195
249.96
247.718
245.468
243.213
240.954
238.692
236.43
234.166
231.904
229.643
227.385
225.131
222.882
220.638
218.4
216.171
213.95
211.739
209.539
207.352
205.179
203.023
200.887
198.773
196.688
194.635
192.625
190.667
188.779
186.984
185.314
183.817
182.553
181.589
180.967
180.664
180.568
180.559
180.574
180.601
180.638
180.684
180.738
180.799
180.869
180.947
181.036
181.137
181.253
181.39
181.554
181.756
182.011
182.34
182.773
183.352
184.131
185.177
186.577
188.429
190.847
193.952
197.871
202.729
208.64
215.708
224.014
233.618
244.55
256.798
270.293
284.885
300.343
316.368
332.617
348.745
364.428
379.382
393.368
406.195
417.723
427.839
436.342
442.638
)
;

boundaryField
{
    sides
    {
        type            zeroGradient;
    }
    empty
    {
        type            empty;
    }
}


// ************************************************************************* //
