/*--------------------------------*- C++ -*----------------------------------*\
| =========                 |                                                 |
| \\      /  F ield         | OpenFOAM: The Open Source CFD Toolbox           |
|  \\    /   O peration     | Version:  2212                                  |
|   \\  /    A nd           | Website:  www.openfoam.com                      |
|    \\/     M anipulation  |                                                 |
\*---------------------------------------------------------------------------*/
FoamFile
{
    version     2.0;
    format      ascii;
    arch        "LSB;label=32;scalar=64";
    class       volScalarField;
    location    "0.007";
    object      thermo:psi;
}
// * * * * * * * * * * * * * * * * * * * * * * * * * * * * * * * * * * * * * //

dimensions      [0 -2 2 0 0 0 0];

internalField   nonuniform List<scalar> 
100
(
1.16103e-05
1.16103e-05
1.16103e-05
1.16103e-05
1.16103e-05
1.16103e-05
1.16103e-05
1.16103e-05
1.16103e-05
1.16103e-05
1.16103e-05
1.16103e-05
1.16103e-05
1.16103e-05
1.16103e-05
1.16103e-05
1.16103e-05
1.16103e-05
1.16103e-05
1.16103e-05
1.16103e-05
1.16103e-05
1.16103e-05
1.16103e-05
1.16104e-05
1.16218e-05
1.17185e-05
1.19291e-05
1.21516e-05
1.23466e-05
1.25249e-05
1.26981e-05
1.28716e-05
1.30476e-05
1.32267e-05
1.34095e-05
1.35962e-05
1.37872e-05
1.39828e-05
1.41833e-05
1.43889e-05
1.45999e-05
1.48165e-05
1.50387e-05
1.52666e-05
1.55e-05
1.57385e-05
1.59812e-05
1.62253e-05
1.64657e-05
1.6683e-05
1.6831e-05
1.67061e-05
1.66988e-05
1.67331e-05
1.67483e-05
1.67544e-05
1.67435e-05
1.67456e-05
1.67559e-05
1.67774e-05
1.67955e-05
1.68009e-05
1.67982e-05
1.67668e-05
1.66881e-05
1.64879e-05
1.59991e-05
1.49418e-05
1.31103e-05
1.08452e-05
9.15183e-06
8.40071e-06
8.20019e-06
8.1441e-06
8.13175e-06
8.14607e-06
8.18857e-06
8.26216e-06
8.30289e-06
8.31602e-06
8.32579e-06
8.32747e-06
8.29175e-06
8.26238e-06
8.26954e-06
8.28582e-06
8.31336e-06
8.57132e-06
1.01833e-05
1.15867e-05
1.16103e-05
1.16103e-05
1.16103e-05
1.16103e-05
1.16103e-05
1.16103e-05
1.16103e-05
1.16103e-05
1.16103e-05
)
;

boundaryField
{
    sides
    {
        type            calculated;
        value           nonuniform List<scalar> 2(1.16103e-05 1.16103e-05);
    }
    empty
    {
        type            empty;
    }
}


// ************************************************************************* //
