/*--------------------------------*- C++ -*----------------------------------*\
| =========                 |                                                 |
| \\      /  F ield         | OpenFOAM: The Open Source CFD Toolbox           |
|  \\    /   O peration     | Version:  2212                                  |
|   \\  /    A nd           | Website:  www.openfoam.com                      |
|    \\/     M anipulation  |                                                 |
\*---------------------------------------------------------------------------*/
FoamFile
{
    version     2.0;
    format      ascii;
    arch        "LSB;label=32;scalar=64";
    class       volScalarField;
    location    "0.007";
    object      thermo:psi;
}
// * * * * * * * * * * * * * * * * * * * * * * * * * * * * * * * * * * * * * //

dimensions      [0 -2 2 0 0 0 0];

internalField   nonuniform List<scalar> 
100
(
1.16103e-05
1.16103e-05
1.16103e-05
1.16103e-05
1.16103e-05
1.16103e-05
1.16103e-05
1.16103e-05
1.16104e-05
1.16106e-05
1.16109e-05
1.16114e-05
1.16124e-05
1.16142e-05
1.16171e-05
1.16217e-05
1.16289e-05
1.16396e-05
1.16547e-05
1.16755e-05
1.17028e-05
1.17378e-05
1.17812e-05
1.18336e-05
1.18952e-05
1.19662e-05
1.20466e-05
1.21361e-05
1.22345e-05
1.23415e-05
1.24567e-05
1.25798e-05
1.27104e-05
1.28483e-05
1.29933e-05
1.3145e-05
1.33033e-05
1.34681e-05
1.36392e-05
1.38166e-05
1.4e-05
1.41894e-05
1.43846e-05
1.45855e-05
1.47918e-05
1.50031e-05
1.52189e-05
1.54381e-05
1.56591e-05
1.5879e-05
1.6092e-05
1.62865e-05
1.6436e-05
1.64901e-05
1.64814e-05
1.64622e-05
1.64369e-05
1.64032e-05
1.6357e-05
1.62918e-05
1.61972e-05
1.60593e-05
1.58612e-05
1.55856e-05
1.52189e-05
1.47559e-05
1.42026e-05
1.35768e-05
1.29054e-05
1.22202e-05
1.15522e-05
1.0928e-05
1.03669e-05
9.88071e-06
9.47382e-06
9.14474e-06
8.88757e-06
8.69358e-06
8.55262e-06
8.4543e-06
8.38899e-06
8.34855e-06
8.32697e-06
8.32114e-06
8.33194e-06
8.36651e-06
8.44227e-06
8.59322e-06
8.87554e-06
9.3581e-06
1.00584e-05
1.08064e-05
1.13067e-05
1.15164e-05
1.15833e-05
1.16026e-05
1.16081e-05
1.16097e-05
1.16101e-05
1.16102e-05
)
;

boundaryField
{
    sides
    {
        type            calculated;
        value           nonuniform List<scalar> 2(1.16102e-05 1.16103e-05);
    }
    empty
    {
        type            empty;
    }
}


// ************************************************************************* //
