/*--------------------------------*- C++ -*----------------------------------*\
| =========                 |                                                 |
| \\      /  F ield         | OpenFOAM: The Open Source CFD Toolbox           |
|  \\    /   O peration     | Version:  2212                                  |
|   \\  /    A nd           | Website:  www.openfoam.com                      |
|    \\/     M anipulation  |                                                 |
\*---------------------------------------------------------------------------*/
FoamFile
{
    version     2.0;
    format      ascii;
    arch        "LSB;label=32;scalar=64";
    class       volVectorField;
    location    "0.007";
    object      U;
}
// * * * * * * * * * * * * * * * * * * * * * * * * * * * * * * * * * * * * * //

dimensions      [0 1 -1 0 0 0 0];

internalField   nonuniform List<vector> 
100
(
(7.47919e-06 0 0)
(2.07349e-05 0 0)
(5.55779e-05 0 0)
(0.000143998 0 0)
(0.000360549 0 0)
(0.000872198 0 0)
(0.00203792 0 0)
(0.00459787 0 0)
(0.0100135 0 0)
(0.0210446 0 0)
(0.0426654 0 0)
(0.0834179 0 0)
(0.157243 0 0)
(0.285708 0 0)
(0.500343 0 0)
(0.844574 0 0)
(1.37454 0 0)
(2.15809 0 0)
(3.27158 0 0)
(4.79457 0 0)
(6.80326 0 0)
(9.36385 0 0)
(12.5272 0 0)
(16.3255 0 0)
(20.7718 0 0)
(25.8613 0 0)
(31.5743 0 0)
(37.8802 0 0)
(44.7409 0 0)
(52.114 0 0)
(59.956 0 0)
(68.2241 0 0)
(76.8772 0 0)
(85.877 0 0)
(95.1884 0 0)
(104.779 0 0)
(114.621 0 0)
(124.687 0 0)
(134.954 0 0)
(145.399 0 0)
(156.002 0 0)
(166.743 0 0)
(177.602 0 0)
(188.558 0 0)
(199.588 0 0)
(210.663 0 0)
(221.746 0 0)
(232.785 0 0)
(243.702 0 0)
(254.366 0 0)
(264.537 0 0)
(273.729 0 0)
(280.862 0 0)
(283.866 0 0)
(284.261 0 0)
(284.374 0 0)
(284.453 0 0)
(284.516 0 0)
(284.567 0 0)
(284.61 0 0)
(284.643 0 0)
(284.666 0 0)
(284.681 0 0)
(284.691 0 0)
(284.699 0 0)
(284.707 0 0)
(284.715 0 0)
(284.724 0 0)
(284.736 0 0)
(284.749 0 0)
(284.765 0 0)
(284.783 0 0)
(284.803 0 0)
(284.826 0 0)
(284.85 0 0)
(284.876 0 0)
(284.9 0 0)
(284.921 0 0)
(284.929 0 0)
(284.909 0 0)
(284.828 0 0)
(284.615 0 0)
(284.126 0 0)
(283.061 0 0)
(280.824 0 0)
(276.239 0 0)
(267.12 0 0)
(249.789 0 0)
(219.252 0 0)
(171.821 0 0)
(111.648 0 0)
(55.689 0 0)
(21.1418 0 0)
(6.70506 0 0)
(1.96514 0 0)
(0.559395 0 0)
(0.157218 0 0)
(0.0438023 0 0)
(0.0120996 0 0)
(0.00331039 0 0)
)
;

boundaryField
{
    sides
    {
        type            zeroGradient;
    }
    empty
    {
        type            empty;
    }
}


// ************************************************************************* //
