/*--------------------------------*- C++ -*----------------------------------*\
| =========                 |                                                 |
| \\      /  F ield         | OpenFOAM: The Open Source CFD Toolbox           |
|  \\    /   O peration     | Version:  2212                                  |
|   \\  /    A nd           | Website:  www.openfoam.com                      |
|    \\/     M anipulation  |                                                 |
\*---------------------------------------------------------------------------*/
FoamFile
{
    version     2.0;
    format      ascii;
    arch        "LSB;label=32;scalar=64";
    class       volVectorField;
    location    "0.007";
    object      U;
}
// * * * * * * * * * * * * * * * * * * * * * * * * * * * * * * * * * * * * * //

dimensions      [0 1 -1 0 0 0 0];

internalField   nonuniform List<vector> 
100
(
(2.24761e-13 0 0)
(2.29405e-13 0 0)
(2.01536e-13 0 0)
(2.34973e-13 0 0)
(2.10233e-13 0 0)
(1.34946e-13 0 0)
(1.36359e-13 0 0)
(1.67123e-13 0 0)
(1.13551e-13 0 0)
(6.23629e-14 0 0)
(5.46446e-14 0 0)
(8.68498e-14 0 0)
(1.14291e-13 0 0)
(1.0357e-13 0 0)
(1.05605e-13 0 0)
(3.28821e-14 0 0)
(-3.0223e-14 0 0)
(-2.40162e-14 0 0)
(-2.54577e-14 0 0)
(-1.69952e-13 0 0)
(-3.33889e-13 0 0)
(-3.35776e-13 0 0)
(2.24767e-10 0 0)
(1.00503e-05 0 0)
(0.0124903 0 0)
(0.855636 0 0)
(7.93857 0 0)
(22.9318 0 0)
(38.3466 0 0)
(51.5325 0 0)
(63.3249 0 0)
(74.5408 0 0)
(85.5518 0 0)
(96.4917 0 0)
(107.407 0 0)
(118.319 0 0)
(129.24 0 0)
(140.182 0 0)
(151.154 0 0)
(162.164 0 0)
(173.218 0 0)
(184.318 0 0)
(195.464 0 0)
(206.651 0 0)
(217.868 0 0)
(229.102 0 0)
(240.323 0 0)
(251.483 0 0)
(262.475 0 0)
(272.999 0 0)
(282.449 0 0)
(288.717 0 0)
(283.761 0 0)
(283.076 0 0)
(284.382 0 0)
(285.242 0 0)
(285.311 0 0)
(284.897 0 0)
(284.785 0 0)
(284.801 0 0)
(284.688 0 0)
(284.58 0 0)
(284.726 0 0)
(284.909 0 0)
(284.642 0 0)
(284.536 0 0)
(284.516 0 0)
(284.441 0 0)
(284.452 0 0)
(284.979 0 0)
(287.823 0 0)
(283.035 0 0)
(277.87 0 0)
(281.989 0 0)
(285.878 0 0)
(289.57 0 0)
(290.021 0 0)
(288.413 0 0)
(282.558 0 0)
(279.473 0 0)
(279.048 0 0)
(278.885 0 0)
(279.753 0 0)
(285.374 0 0)
(290.009 0 0)
(290.241 0 0)
(289.869 0 0)
(288.442 0 0)
(260.868 0 0)
(94.6225 0 0)
(1.2978 0 0)
(8.77722e-05 0 0)
(1.30613e-10 0 0)
(-7.24052e-13 0 0)
(-6.15177e-13 0 0)
(-5.76467e-13 0 0)
(-6.2449e-13 0 0)
(-6.86877e-13 0 0)
(-7.51586e-13 0 0)
(-7.26098e-13 0 0)
)
;

boundaryField
{
    sides
    {
        type            zeroGradient;
    }
    empty
    {
        type            empty;
    }
}


// ************************************************************************* //
