/*--------------------------------*- C++ -*----------------------------------*\
| =========                 |                                                 |
| \\      /  F ield         | OpenFOAM: The Open Source CFD Toolbox           |
|  \\    /   O peration     | Version:  2312                                  |
|   \\  /    A nd           | Website:  www.openfoam.com                      |
|    \\/     M anipulation  |                                                 |
\*---------------------------------------------------------------------------*/
FoamFile
{
    version     2.0;
    format      ascii;
    arch        "LSB;label=32;scalar=64";
    class       volVectorField;
    location    "0.007";
    object      U;
}
// * * * * * * * * * * * * * * * * * * * * * * * * * * * * * * * * * * * * * //

dimensions      [0 1 -1 0 0 0 0];

internalField   nonuniform List<vector> 
100
(
(67.4074 0 0)
(74.4336 0 0)
(81.7101 0 0)
(89.2451 0 0)
(97.0194 0 0)
(105.015 0 0)
(113.213 0 0)
(121.599 0 0)
(130.158 0 0)
(138.874 0 0)
(147.736 0 0)
(156.732 0 0)
(165.85 0 0)
(175.082 0 0)
(184.417 0 0)
(193.848 0 0)
(203.367 0 0)
(212.968 0 0)
(222.644 0 0)
(232.39 0 0)
(242.199 0 0)
(252.068 0 0)
(261.992 0 0)
(271.966 0 0)
(281.986 0 0)
(292.049 0 0)
(302.151 0 0)
(312.287 0 0)
(322.454 0 0)
(332.649 0 0)
(342.866 0 0)
(353.102 0 0)
(363.352 0 0)
(373.61 0 0)
(383.871 0 0)
(394.127 0 0)
(404.37 0 0)
(414.588 0 0)
(424.769 0 0)
(434.895 0 0)
(444.944 0 0)
(454.885 0 0)
(464.676 0 0)
(474.261 0 0)
(483.557 0 0)
(492.447 0 0)
(500.761 0 0)
(508.263 0 0)
(514.646 0 0)
(519.568 0 0)
(522.805 0 0)
(524.479 0 0)
(525.129 0 0)
(525.368 0 0)
(525.496 0 0)
(525.578 0 0)
(525.628 0 0)
(525.655 0 0)
(525.667 0 0)
(525.666 0 0)
(525.659 0 0)
(525.646 0 0)
(525.63 0 0)
(525.614 0 0)
(525.598 0 0)
(525.582 0 0)
(525.568 0 0)
(525.556 0 0)
(525.544 0 0)
(525.534 0 0)
(525.525 0 0)
(525.517 0 0)
(525.51 0 0)
(525.504 0 0)
(525.5 0 0)
(525.497 0 0)
(525.495 0 0)
(525.494 0 0)
(525.494 0 0)
(525.491 0 0)
(525.478 0 0)
(525.438 0 0)
(525.332 0 0)
(525.098 0 0)
(524.649 0 0)
(523.905 0 0)
(522.829 0 0)
(521.476 0 0)
(519.994 0 0)
(518.576 0 0)
(517.387 0 0)
(516.51 0 0)
(515.928 0 0)
(515.563 0 0)
(515.312 0 0)
(515.088 0 0)
(514.828 0 0)
(514.49 0 0)
(514.044 0 0)
(514.107 0 0)
)
;

boundaryField
{
    sides
    {
        type            zeroGradient;
    }
    empty
    {
        type            empty;
    }
}


// ************************************************************************* //
