/*--------------------------------*- C++ -*----------------------------------*\
| =========                 |                                                 |
| \\      /  F ield         | OpenFOAM: The Open Source CFD Toolbox           |
|  \\    /   O peration     | Version:  2312                                  |
|   \\  /    A nd           | Website:  www.openfoam.com                      |
|    \\/     M anipulation  |                                                 |
\*---------------------------------------------------------------------------*/
FoamFile
{
    version     2.0;
    format      ascii;
    arch        "LSB;label=32;scalar=64";
    class       volVectorField;
    location    "0.007";
    object      U;
}
// * * * * * * * * * * * * * * * * * * * * * * * * * * * * * * * * * * * * * //

dimensions      [0 1 -1 0 0 0 0];

internalField   nonuniform List<vector> 
100
(
(7.46236e-06 0 0)
(2.06502e-05 0 0)
(5.52599e-05 0 0)
(0.000142967 0 0)
(0.000357517 0 0)
(0.000863931 0 0)
(0.0020168 0 0)
(0.0045469 0 0)
(0.00989701 0 0)
(0.0207915 0 0)
(0.0421423 0 0)
(0.0823878 0 0)
(0.15531 0 0)
(0.282247 0 0)
(0.494437 0 0)
(0.834956 0 0)
(1.35959 0 0)
(2.13589 0 0)
(3.24006 0 0)
(4.75171 0 0)
(6.74731 0 0)
(9.29358 0 0)
(12.4421 0 0)
(16.2258 0 0)
(20.6586 0 0)
(25.7364 0 0)
(31.4402 0 0)
(37.7397 0 0)
(44.597 0 0)
(51.9702 0 0)
(59.8156 0 0)
(68.0905 0 0)
(76.7535 0 0)
(85.7664 0 0)
(95.0939 0 0)
(104.704 0 0)
(114.567 0 0)
(124.657 0 0)
(134.949 0 0)
(145.423 0 0)
(156.056 0 0)
(166.83 0 0)
(177.724 0 0)
(188.717 0 0)
(199.786 0 0)
(210.904 0 0)
(222.033 0 0)
(233.124 0 0)
(244.101 0 0)
(254.839 0 0)
(265.108 0 0)
(274.443 0 0)
(281.793 0 0)
(284.989 0 0)
(285.422 0 0)
(285.544 0 0)
(285.625 0 0)
(285.68 0 0)
(285.718 0 0)
(285.745 0 0)
(285.764 0 0)
(285.778 0 0)
(285.789 0 0)
(285.799 0 0)
(285.807 0 0)
(285.815 0 0)
(285.824 0 0)
(285.834 0 0)
(285.846 0 0)
(285.859 0 0)
(285.875 0 0)
(285.892 0 0)
(285.912 0 0)
(285.934 0 0)
(285.957 0 0)
(285.981 0 0)
(286.004 0 0)
(286.022 0 0)
(286.027 0 0)
(286.004 0 0)
(285.916 0 0)
(285.694 0 0)
(285.189 0 0)
(284.098 0 0)
(281.814 0 0)
(277.145 0 0)
(267.878 0 0)
(250.293 0 0)
(219.368 0 0)
(171.46 0 0)
(110.937 0 0)
(55.0173 0 0)
(20.7757 0 0)
(6.56708 0 0)
(1.92142 0 0)
(0.546494 0 0)
(0.153552 0 0)
(0.0427917 0 0)
(0.0118296 0 0)
(0.00324088 0 0)
)
;

boundaryField
{
    sides
    {
        type            zeroGradient;
    }
    empty
    {
        type            empty;
    }
}


// ************************************************************************* //
