/*--------------------------------*- C++ -*----------------------------------*\
| =========                 |                                                 |
| \\      /  F ield         | OpenFOAM: The Open Source CFD Toolbox           |
|  \\    /   O peration     | Version:  2312                                  |
|   \\  /    A nd           | Website:  www.openfoam.com                      |
|    \\/     M anipulation  |                                                 |
\*---------------------------------------------------------------------------*/
FoamFile
{
    version     2.0;
    format      ascii;
    arch        "LSB;label=32;scalar=64";
    class       volScalarField;
    location    "0.029";
    object      p;
}
// * * * * * * * * * * * * * * * * * * * * * * * * * * * * * * * * * * * * * //

dimensions      [1 -1 -2 0 0 0 0];

internalField   nonuniform List<scalar> 
100
(
49532.4
49153.2
48614.5
48111.6
47596
47106.6
46578.6
46128
45555.7
45183
44522.1
44267.2
43495.5
43349.8
42516.6
42393.8
41609.6
41402.2
40747.3
40420.6
39886.1
39481.5
39013.8
38583
38142.8
37712.5
37285.1
36863
36445.7
36033.3
35626
35223.8
34826.9
34435.4
34049.5
33669.4
33295.4
32927.6
32566.5
32212.5
31865.9
31527.2
31197.4
30876.3
30566.4
30265.3
29980.4
29701
29449.9
29191
28988.2
28742.7
28610.8
28363.7
28330.1
28062.2
28147.8
27847.7
28048.7
27727.7
28003.4
27700.9
27981.7
27750.6
27966.1
27850.9
27949.6
27982.7
27920.9
28146.8
27858.1
28359.9
27739.5
28630.2
27568.5
28931.8
27397.6
29195.3
27320.4
29339.7
27433.8
29341.4
27786.8
29284.2
28362.1
29366.5
29161.5
29920.9
30445.8
31523.2
32813.2
34453.9
35992.9
37438
38412.8
39083
39448.5
39676.8
39734.3
39781.8
)
;

boundaryField
{
    sides
    {
        type            zeroGradient;
    }
    empty
    {
        type            empty;
    }
}


// ************************************************************************* //
