/*--------------------------------*- C++ -*----------------------------------*\
| =========                 |                                                 |
| \\      /  F ield         | OpenFOAM: The Open Source CFD Toolbox           |
|  \\    /   O peration     | Version:  2312                                  |
|   \\  /    A nd           | Website:  www.openfoam.com                      |
|    \\/     M anipulation  |                                                 |
\*---------------------------------------------------------------------------*/
FoamFile
{
    version     2.0;
    format      ascii;
    arch        "LSB;label=32;scalar=64";
    class       volScalarField;
    location    "0.029";
    object      rho;
}
// * * * * * * * * * * * * * * * * * * * * * * * * * * * * * * * * * * * * * //

dimensions      [1 -3 0 0 0 0 0];

internalField   nonuniform List<scalar> 
100
(
0.665485
0.662605
0.659025
0.655615
0.65224
0.648924
0.645704
0.64252
0.639498
0.636406
0.633559
0.630435
0.627593
0.624333
0.621187
0.617773
0.614083
0.610476
0.606294
0.602371
0.597932
0.593662
0.58912
0.584624
0.580036
0.575452
0.570856
0.566272
0.561707
0.557168
0.552661
0.548191
0.543763
0.539379
0.535043
0.530757
0.526527
0.522355
0.518245
0.514204
0.510237
0.506351
0.502552
0.498852
0.495258
0.491788
0.488441
0.485258
0.482209
0.479393
0.476695
0.474337
0.472037
0.47023
0.468372
0.467161
0.465788
0.46512
0.464275
0.463987
0.463684
0.463571
0.463749
0.463676
0.464191
0.464112
0.464813
0.464695
0.465547
0.465292
0.466381
0.465826
0.467255
0.466339
0.468066
0.466965
0.468663
0.467878
0.46907
0.469257
0.469579
0.471149
0.470866
0.47394
0.474152
0.478581
0.480889
0.487441
0.495024
0.507361
0.523185
0.541077
0.558419
0.572662
0.582925
0.58983
0.59346
0.594792
0.595347
0.595765
)
;

boundaryField
{
    sides
    {
        type            zeroGradient;
    }
    empty
    {
        type            empty;
    }
}


// ************************************************************************* //
