/*--------------------------------*- C++ -*----------------------------------*\
| =========                 |                                                 |
| \\      /  F ield         | OpenFOAM: The Open Source CFD Toolbox           |
|  \\    /   O peration     | Version:  2312                                  |
|   \\  /    A nd           | Website:  www.openfoam.com                      |
|    \\/     M anipulation  |                                                 |
\*---------------------------------------------------------------------------*/
FoamFile
{
    version     2.0;
    format      ascii;
    arch        "LSB;label=32;scalar=64";
    class       volScalarField;
    location    "0.029";
    object      thermo:e;
}
// * * * * * * * * * * * * * * * * * * * * * * * * * * * * * * * * * * * * * //

dimensions      [0 2 -2 0 0 0 0];

internalField   nonuniform List<scalar> 
100
(
186065
185443
184407
183449
182421
181468
180329
179469
178080
177482
175671
175531
173252
173574
171100
171548
169387
169538
168007
167746
166756
166252
165549
164980
164388
163828
163276
162734
162200
161671
161146
160626
160110
159597
159087
158582
158080
157583
157090
156603
156123
155649
155185
154727
154286
153844
153440
153007
152673
152219
152018
151479
151519
150787
151206
150165
151067
149671
151026
149390
150974
149379
150836
149613
150608
150013
150318
150534
149927
151223
149322
152193
148408
153474
147238
154883
146139
155988
145600
156300
146046
155681
147521
154463
149532
153394
151593
153449
153750
155320
156785
159181
161128
163428
164731
165643
166170
166757
166843
166926
)
;

boundaryField
{
    sides
    {
        type            zeroGradient;
    }
    empty
    {
        type            empty;
    }
}


// ************************************************************************* //
