0.005 	1.4365e+08 	5014.17
0.015 	1.41344e+08 	4993.86
0.025 	1.39058e+08 	4973.47
0.035 	1.36791e+08 	4953
0.045 	1.34543e+08 	4932.46
0.055 	1.32316e+08 	4911.85
0.065 	1.30109e+08 	4891.17
0.075 	1.27922e+08 	4870.42
0.085 	1.25756e+08 	4849.6
0.095 	1.23611e+08 	4828.71
0.105 	1.21487e+08 	4807.76
0.115 	1.19385e+08 	4786.75
0.125 	1.17303e+08 	4765.68
0.135 	1.15243e+08 	4744.55
0.145 	1.13205e+08 	4723.36
0.155 	1.11189e+08 	4702.11
0.165 	1.09194e+08 	4680.81
0.175 	1.07222e+08 	4659.45
0.185 	1.05272e+08 	4638.05
0.195 	1.03344e+08 	4616.59
0.205 	1.01438e+08 	4595.09
0.215 	9.95547e+07 	4573.54
0.225 	9.76938e+07 	4551.94
0.235 	9.58554e+07 	4530.3
0.245 	9.40396e+07 	4508.62
0.255 	9.22463e+07 	4486.9
0.265 	9.04757e+07 	4465.14
0.275 	8.87276e+07 	4443.34
0.285 	8.70022e+07 	4421.5
0.295 	8.52993e+07 	4399.64
0.305 	8.36191e+07 	4377.73
0.315 	8.19614e+07 	4355.8
0.325 	8.03263e+07 	4333.84
0.335 	7.87136e+07 	4311.85
0.345 	7.71235e+07 	4289.83
0.355 	7.55557e+07 	4267.79
0.365 	7.40103e+07 	4245.73
0.375 	7.24872e+07 	4223.64
0.385 	7.09863e+07 	4201.53
0.395 	6.95076e+07 	4179.4
0.405 	6.80508e+07 	4157.26
0.415 	6.6616e+07 	4135.1
0.425 	6.52031e+07 	4112.92
0.435 	6.38119e+07 	4090.73
0.445 	6.24423e+07 	4068.53
0.455 	6.10943e+07 	4046.32
0.465 	5.97676e+07 	4024.1
0.475 	5.84622e+07 	4001.87
0.485 	5.71779e+07 	3979.63
0.495 	5.59146e+07 	3957.4
0.505 	5.46721e+07 	3935.15
0.515 	5.34503e+07 	3912.91
0.525 	5.22491e+07 	3890.66
0.535 	5.10682e+07 	3868.42
0.545 	4.99075e+07 	3846.18
0.555 	4.87669e+07 	3823.94
0.565 	4.76462e+07 	3801.7
0.575 	4.65451e+07 	3779.47
0.585 	4.54636e+07 	3757.25
0.595 	4.44015e+07 	3735.04
0.605 	4.33585e+07 	3712.84
0.615 	4.23345e+07 	3690.65
0.625 	4.13293e+07 	3668.47
0.635 	4.03427e+07 	3646.31
0.645 	3.93745e+07 	3624.16
0.655 	3.84245e+07 	3602.02
0.665 	3.74926e+07 	3579.91
0.675 	3.65784e+07 	3557.81
0.685 	3.56819e+07 	3535.74
0.695 	3.48028e+07 	3513.68
0.705 	3.39409e+07 	3491.65
0.715 	3.30959e+07 	3469.64
0.725 	3.22678e+07 	3447.66
0.735 	3.14563e+07 	3425.71
0.745 	3.06611e+07 	3403.78
0.755 	2.98821e+07 	3381.88
0.765 	2.9119e+07 	3360.01
0.775 	2.83717e+07 	3338.17
0.785 	2.76399e+07 	3316.36
0.795 	2.69235e+07 	3294.59
0.805 	2.62221e+07 	3272.85
0.815 	2.55356e+07 	3251.14
0.825 	2.48638e+07 	3229.47
0.835 	2.42064e+07 	3207.84
0.845 	2.35634e+07 	3186.25
0.855 	2.29343e+07 	3164.7
0.865 	2.23191e+07 	3143.19
0.875 	2.17174e+07 	3121.72
0.885 	2.11292e+07 	3100.29
0.895 	2.05542e+07 	3078.91
0.905 	1.99921e+07 	3057.57
0.915 	1.94428e+07 	3036.28
0.925 	1.89061e+07 	3015.04
0.935 	1.83817e+07 	2993.84
0.945 	1.78695e+07 	2972.7
0.955 	1.73692e+07 	2951.6
0.965 	1.68807e+07 	2930.55
0.975 	1.64037e+07 	2909.56
0.985 	1.5938e+07 	2888.62
0.995 	1.54834e+07 	2867.73
1.005 	1.50398e+07 	2846.9
1.015 	1.4607e+07 	2826.12
1.025 	1.41846e+07 	2805.4
1.035 	1.37727e+07 	2784.74
1.045 	1.33708e+07 	2764.13
1.055 	1.2979e+07 	2743.59
1.065 	1.25969e+07 	2723.1
1.075 	1.22244e+07 	2702.67
1.085 	1.18613e+07 	2682.31
1.095 	1.15074e+07 	2662.01
1.105 	1.11626e+07 	2641.77
1.115 	1.08266e+07 	2621.6
1.125 	1.04993e+07 	2601.49
1.135 	1.01805e+07 	2581.45
1.145 	9.87003e+06 	2561.48
1.155 	9.56772e+06 	2541.57
1.165 	9.2734e+06 	2521.73
1.175 	8.9869e+06 	2501.95
1.185 	8.70805e+06 	2482.25
1.195 	8.4367e+06 	2462.62
1.205 	8.17268e+06 	2443.06
1.215 	7.91583e+06 	2423.57
1.225 	7.666e+06 	2404.15
1.235 	7.42302e+06 	2384.81
1.245 	7.18676e+06 	2365.54
1.255 	6.95705e+06 	2346.34
1.265 	6.73375e+06 	2327.22
1.275 	6.51672e+06 	2308.18
1.285 	6.30581e+06 	2289.21
1.295 	6.10087e+06 	2270.31
1.305 	5.90178e+06 	2251.5
1.315 	5.70839e+06 	2232.76
1.325 	5.52057e+06 	2214.1
1.335 	5.33818e+06 	2195.52
1.345 	5.1611e+06 	2177.02
1.355 	4.9892e+06 	2158.61
1.365 	4.82235e+06 	2140.27
1.375 	4.66042e+06 	2122.01
1.385 	4.5033e+06 	2103.83
1.395 	4.35087e+06 	2085.74
1.405 	4.20301e+06 	2067.73
1.415 	4.05961e+06 	2049.8
1.425 	3.92054e+06 	2031.96
1.435 	3.78571e+06 	2014.2
1.445 	3.65499e+06 	1996.53
1.455 	3.5283e+06 	1978.94
1.465 	3.40551e+06 	1961.43
1.475 	3.28654e+06 	1944.02
1.485 	3.17127e+06 	1926.68
1.495 	3.05961e+06 	1909.44
1.505 	2.95146e+06 	1892.28
1.515 	2.84674e+06 	1875.21
1.525 	2.74533e+06 	1858.23
1.535 	2.64717e+06 	1841.33
1.545 	2.55215e+06 	1824.53
1.555 	2.46019e+06 	1807.81
1.565 	2.37121e+06 	1791.18
1.575 	2.28512e+06 	1774.64
1.585 	2.20184e+06 	1758.19
1.595 	2.1213e+06 	1741.83
1.605 	2.0434e+06 	1725.57
1.615 	1.96809e+06 	1709.39
1.625 	1.89528e+06 	1693.3
1.635 	1.8249e+06 	1677.3
1.645 	1.75688e+06 	1661.4
1.655 	1.69116e+06 	1645.59
1.665 	1.62766e+06 	1629.86
1.675 	1.56632e+06 	1614.23
1.685 	1.50707e+06 	1598.7
1.695 	1.44985e+06 	1583.25
1.705 	1.39461e+06 	1567.9
1.715 	1.34128e+06 	1552.64
1.725 	1.2898e+06 	1537.47
1.735 	1.24011e+06 	1522.39
1.745 	1.19217e+06 	1507.41
1.755 	1.14591e+06 	1492.52
1.765 	1.10129e+06 	1477.73
1.775 	1.05826e+06 	1463.02
1.785 	1.01675e+06 	1448.42
1.795 	976736 	1433.9
1.805 	938157 	1419.48
1.815 	900971 	1405.15
1.825 	865132 	1390.92
1.835 	830598 	1376.78
1.845 	797325 	1362.73
1.855 	765274 	1348.78
1.865 	734403 	1334.92
1.875 	704674 	1321.15
1.885 	676050 	1307.48
1.895 	648493 	1293.9
1.905 	621968 	1280.42
1.915 	596441 	1267.03
1.925 	571877 	1253.73
1.935 	548244 	1240.53
1.945 	525510 	1227.42
1.955 	503644 	1214.41
1.965 	482617 	1201.48
1.975 	462400 	1188.66
1.985 	442964 	1175.92
1.995 	424282 	1163.28
2.005 	406328 	1150.73
2.015 	389076 	1138.28
2.025 	372501 	1125.91
2.035 	356579 	1113.64
2.045 	341287 	1101.47
2.055 	326603 	1089.38
2.065 	312504 	1077.39
2.075 	298968 	1065.49
2.085 	285977 	1053.68
2.095 	273509 	1041.96
2.105 	261546 	1030.34
2.115 	250069 	1018.81
2.125 	239059 	1007.37
2.135 	228500 	996.015
2.145 	218375 	984.756
2.155 	208667 	973.587
2.165 	199361 	962.509
2.175 	190441 	951.52
2.185 	181893 	940.622
2.195 	173703 	929.814
2.205 	165857 	919.095
2.215 	158341 	908.466
2.225 	151143 	897.925
2.235 	144250 	887.473
2.245 	137651 	877.11
2.255 	131334 	866.835
2.265 	125288 	856.648
2.275 	119502 	846.548
2.285 	113967 	836.535
2.295 	108671 	826.61
2.305 	103606 	816.772
2.315 	98761.3 	807.02
2.325 	94129.3 	797.354
2.335 	89700.9 	787.774
2.345 	85467.9 	778.279
2.355 	81422.2 	768.87
2.365 	77556.3 	759.545
2.375 	73862.7 	750.305
2.385 	70334.3 	741.149
2.395 	66964.2 	732.076
2.405 	63745.9 	723.087
2.415 	60673 	714.181
2.425 	57739.4 	705.358
2.435 	54939.3 	696.617
2.445 	52267 	687.958
2.455 	49717 	679.381
2.465 	47284.3 	670.884
2.475 	44963.6 	662.469
2.485 	42750.4 	654.134
2.495 	40639.8 	645.879
2.505 	38627.5 	637.703
2.515 	36709.2 	629.607
2.525 	34880.8 	621.59
2.535 	33138.4 	613.651
2.545 	31478.2 	605.791
2.555 	29896.6 	598.007
2.565 	28390 	590.301
2.575 	26955.2 	582.672
2.585 	25589 	575.119
2.595 	24288.3 	567.642
2.605 	23050.2 	560.241
2.615 	21871.7 	552.915
2.625 	20750.4 	545.663
2.635 	19683.4 	538.486
2.645 	18668.5 	531.382
2.655 	17703.1 	524.352
2.665 	16785.1 	517.394
2.675 	15912.2 	510.509
2.685 	15082.3 	503.697
2.695 	14293.6 	496.955
2.705 	13543.9 	490.285
2.715 	12831.6 	483.686
2.725 	12154.9 	477.157
2.735 	11512 	470.697
2.745 	10901.5 	464.307
2.755 	10321.7 	457.986
2.765 	9771.28 	451.733
2.775 	9248.75 	445.548
2.785 	8752.79 	439.431
2.795 	8282.13 	433.381
2.805 	7835.56 	427.397
2.815 	7411.91 	421.479
2.825 	7010.08 	415.627
2.835 	6628.99 	409.841
2.845 	6267.63 	404.119
2.855 	5925.05 	398.461
2.865 	5600.32 	392.867
2.875 	5292.56 	387.336
2.885 	5000.92 	381.868
2.895 	4724.62 	376.463
2.905 	4462.88 	371.119
2.915 	4214.97 	365.837
2.925 	3980.22 	360.616
2.935 	3757.95 	355.456
2.945 	3547.53 	350.355
2.955 	3348.37 	345.314
2.965 	3159.89 	340.332
2.975 	2981.56 	335.409
2.985 	2812.84 	330.544
2.995 	2653.25 	325.737
3.005 	2502.33 	320.986
3.015 	2359.61 	316.293
3.025 	2224.69 	311.656
3.035 	2097.15 	307.075
3.045 	1976.61 	302.549
3.055 	1862.7 	298.078
3.065 	1755.08 	293.661
3.075 	1653.42 	289.299
3.085 	1557.4 	284.99
3.095 	1466.72 	280.734
3.105 	1381.1 	276.53
3.115 	1300.28 	272.379
3.125 	1223.99 	268.28
3.135 	1152 	264.231
3.145 	1084.06 	260.233
3.155 	1019.98 	256.286
3.165 	959.524 	252.388
3.175 	902.511 	248.54
3.185 	848.752 	244.741
3.195 	798.068 	240.99
3.205 	750.291 	237.287
3.215 	705.262 	233.632
3.225 	662.831 	230.024
3.235 	622.853 	226.463
3.245 	585.193 	222.948
3.255 	549.722 	219.478
3.265 	516.319 	216.054
3.275 	484.869 	212.675
3.285 	455.261 	209.341
3.295 	427.394 	206.05
3.305 	401.168 	202.803
3.315 	376.491 	199.599
3.325 	353.276 	196.438
3.335 	331.439 	193.32
3.345 	310.903 	190.243
3.355 	291.592 	187.207
3.365 	273.437 	184.213
3.375 	256.371 	181.259
3.385 	240.332 	178.346
3.395 	225.26 	175.472
3.405 	211.1 	172.638
3.415 	197.798 	169.843
3.425 	185.305 	167.086
3.435 	173.572 	164.367
3.445 	162.557 	161.686
3.455 	152.216 	159.042
3.465 	142.51 	156.436
3.475 	133.402 	153.866
3.485 	124.855 	151.332
3.495 	116.838 	148.833
3.505 	109.318 	146.37
3.515 	102.265 	143.942
3.525 	95.6517 	141.549
3.535 	89.4518 	139.19
3.545 	83.6404 	136.864
3.555 	78.1939 	134.572
3.565 	73.0902 	132.313
3.575 	68.3087 	130.087
3.585 	63.8297 	127.893
3.595 	59.6348 	125.731
3.605 	55.7066 	123.6
3.615 	52.0287 	121.501
3.625 	48.5858 	119.432
3.635 	45.3634 	117.394
3.645 	42.3479 	115.386
3.655 	39.5265 	113.408
3.665 	36.8871 	111.459
3.675 	34.4183 	109.539
3.685 	32.1096 	107.648
3.695 	29.9509 	105.786
3.705 	27.9328 	103.951
3.715 	26.0465 	102.144
3.725 	24.2837 	100.364
3.735 	22.6364 	98.6115
3.745 	21.0975 	96.8856
3.755 	19.6601 	95.1859
3.765 	18.3176 	93.5123
3.775 	17.064 	91.8643
3.785 	15.8936 	90.2417
3.795 	14.8011 	88.6442
3.805 	13.7814 	87.0714
3.815 	12.83 	85.5231
3.825 	11.9422 	83.9988
3.835 	11.1141 	82.4984
3.845 	10.3417 	81.0215
3.855 	9.62147 	79.5678
3.865 	8.94992 	78.137
3.875 	8.32389 	76.7287
3.885 	7.74039 	75.3428
3.895 	7.19662 	73.9789
3.905 	6.68996 	72.6368
3.915 	6.21796 	71.316
3.925 	5.77832 	70.0164
3.935 	5.36889 	68.7377
3.945 	4.98766 	67.4796
3.955 	4.63275 	66.2418
3.965 	4.30238 	65.0241
3.975 	3.99493 	63.8262
3.985 	3.70884 	62.6477
3.995 	3.44268 	61.4885
4.005 	3.19509 	60.3483
4.015 	2.96483 	59.2268
4.025 	2.75072 	58.1238
4.035 	2.55165 	57.039
4.045 	2.3666 	55.9721
4.055 	2.19461 	54.923
4.065 	2.03479 	53.8912
4.075 	1.8863 	52.8767
4.085 	1.74835 	51.8792
4.095 	1.62024 	50.8985
4.105 	1.50126 	49.9342
4.115 	1.39079 	48.9862
4.125 	1.28825 	48.0542
4.135 	1.19306 	47.138
4.145 	1.10473 	46.2374
4.155 	1.02277 	45.3521
4.165 	0.94674 	44.4819
4.175 	0.876215 	43.6267
4.185 	0.810811 	42.7861
4.195 	0.750166 	41.96
4.205 	0.693943 	41.1481
4.215 	0.641829 	40.3504
4.225 	0.593531 	39.5664
4.235 	0.548778 	38.7961
4.245 	0.507316 	38.0393
4.255 	0.468909 	37.2956
4.265 	0.433339 	36.565
4.275 	0.400401 	35.8473
4.285 	0.369907 	35.1421
4.295 	0.341678 	34.4495
4.305 	0.315552 	33.769
4.315 	0.291376 	33.1007
4.325 	0.269008 	32.4442
4.335 	0.248316 	31.7995
4.345 	0.229178 	31.1663
4.355 	0.21148 	30.5445
4.365 	0.195117 	29.9338
4.375 	0.17999 	29.3341
4.385 	0.166009 	28.7453
4.395 	0.153089 	28.1671
4.405 	0.14115 	27.5994
4.415 	0.130122 	27.042
4.425 	0.119935 	26.4948
4.435 	0.110528 	25.9576
4.445 	0.101842 	25.4302
4.455 	0.0938226 	24.9125
4.465 	0.0864207 	24.4044
4.475 	0.0795897 	23.9056
4.485 	0.0732865 	23.416
4.495 	0.0674714 	22.9356
4.505 	0.0621074 	22.464
4.515 	0.0571605 	22.0013
4.525 	0.0525989 	21.5472
4.535 	0.0483933 	21.1016
4.545 	0.0445167 	20.6643
4.555 	0.0409438 	20.2353
4.565 	0.0376515 	19.8143
4.575 	0.0346182 	19.4013
4.585 	0.031824 	18.9962
4.595 	0.0292505 	18.5987
4.605 	0.0268807 	18.2088
4.615 	0.0246988 	17.8263
4.625 	0.0226903 	17.4512
4.635 	0.0208416 	17.0832
4.645 	0.0191404 	16.7223
4.655 	0.0175752 	16.3684
4.665 	0.0161353 	16.0212
4.675 	0.0148109 	15.6808
4.685 	0.0135929 	15.347
4.695 	0.0124731 	15.0196
4.705 	0.0114436 	14.6987
4.715 	0.0104974 	14.384
4.725 	0.00962776 	14.0754
4.735 	0.00882873 	13.7729
4.745 	0.00809468 	13.4764
4.755 	0.00742044 	13.1856
4.765 	0.00680122 	12.9007
4.775 	0.00623265 	12.6213
4.785 	0.00571066 	12.3475
4.795 	0.00523152 	12.0791
4.805 	0.00479179 	11.8161
4.815 	0.0043883 	11.5583
4.825 	0.00401811 	11.3057
4.835 	0.00367854 	11.0581
4.845 	0.00336711 	10.8155
4.855 	0.00308154 	10.5778
4.865 	0.00281972 	10.3449
4.875 	0.00257971 	10.1167
4.885 	0.00235975 	9.89312
4.895 	0.00215818 	9.67408
4.905 	0.0019735 	9.45949
4.915 	0.00180433 	9.24927
4.925 	0.00164938 	9.04336
4.935 	0.00150749 	8.84166
4.945 	0.00137758 	8.64411
4.955 	0.00125866 	8.45061
4.965 	0.00114981 	8.26111
4.975 	0.0010502 	8.07552
4.985 	0.000959059 	7.89377
4.995 	0.000875684 	7.71579
5.005 	0.000799425 	7.54151
5.015 	0.000729685 	7.37085
5.025 	0.000665919 	7.20376
5.035 	0.000607625 	7.04017
5.045 	0.000554343 	6.88001
5.055 	0.000505648 	6.72322
5.065 	0.000461155 	6.56973
5.075 	0.000420508 	6.41947
5.085 	0.00038338 	6.27239
5.095 	0.000349472 	6.12843
5.105 	0.000318511 	5.98752
5.115 	0.000290244 	5.84961
5.125 	0.000264443 	5.71465
5.135 	0.000240896 	5.58256
5.145 	0.000219409 	5.45331
5.155 	0.000199806 	5.32683
5.165 	0.000181924 	5.20307
5.175 	0.000165616 	5.08197
5.185 	0.000150745 	4.96349
5.195 	0.000137187 	4.84758
5.205 	0.000124827 	4.73418
5.215 	0.000113563 	4.62324
5.225 	0.000103299 	4.51472
5.235 	9.39469e-05 	4.40857
5.245 	8.54278e-05 	4.30474
5.255 	7.76687e-05 	4.20319
5.265 	7.0603e-05 	4.10387
5.275 	6.41699e-05 	4.00674
5.285 	5.83136e-05 	3.91175
5.295 	5.29835e-05 	3.81886
5.305 	4.81329e-05 	3.72803
5.315 	4.37196e-05 	3.63922
5.325 	3.97048e-05 	3.55239
5.335 	3.6053e-05 	3.4675
5.345 	3.27322e-05 	3.38451
5.355 	2.97127e-05 	3.30338
5.365 	2.69678e-05 	3.22408
5.375 	2.44728e-05 	3.14656
5.385 	2.22054e-05 	3.0708
5.395 	2.01452e-05 	2.99676
5.405 	1.82735e-05 	2.9244
5.415 	1.65734e-05 	2.85369
5.425 	1.50295e-05 	2.7846
5.435 	1.36276e-05 	2.71709
5.445 	1.23549e-05 	2.65114
5.455 	1.11996e-05 	2.58671
5.465 	1.01512e-05 	2.52377
5.475 	9.1998e-06 	2.4623
5.485 	8.33669e-06 	2.40226
5.495 	7.55378e-06 	2.34364
5.505 	6.84373e-06 	2.28639
5.515 	6.19987e-06 	2.23049
5.525 	5.61614e-06 	2.17592
5.535 	5.087e-06 	2.12265
5.545 	4.60744e-06 	2.07067
5.555 	4.17287e-06 	2.01993
5.565 	3.77915e-06 	1.97043
5.575 	3.4225e-06 	1.92214
5.585 	3.09948e-06 	1.87504
5.595 	2.80698e-06 	1.8291
5.605 	2.54214e-06 	1.78431
5.615 	2.3024e-06 	1.74064
5.625 	2.08542e-06 	1.69809
5.635 	1.88907e-06 	1.65663
5.645 	1.71141e-06 	1.61624
5.655 	1.5507e-06 	1.57691
5.665 	1.40534e-06 	1.53862
5.675 	1.27389e-06 	1.50137
5.685 	1.15504e-06 	1.46512
5.695 	1.04759e-06 	1.42988
5.705 	9.50478e-07 	1.39563
5.715 	8.62717e-07 	1.36236
5.725 	7.8342e-07 	1.33005
5.735 	7.11784e-07 	1.29871
5.745 	6.4708e-07 	1.26831
5.755 	5.88646e-07 	1.23886
5.765 	5.35884e-07 	1.21034
5.775 	4.88252e-07 	1.18274
5.785 	4.45258e-07 	1.15607
5.795 	4.06457e-07 	1.13031
5.805 	3.71446e-07 	1.10546
5.815 	3.39861e-07 	1.08151
5.825 	3.1137e-07 	1.05846
5.835 	2.85676e-07 	1.03631
5.845 	2.62507e-07 	1.01505
5.855 	2.4162e-07 	0.994663
5.865 	2.22791e-07 	0.975157
5.875 	2.05822e-07 	0.956521
5.885 	1.90532e-07 	0.938747
5.895 	1.76756e-07 	0.921826
5.905 	1.64347e-07 	0.905748
5.915 	1.53171e-07 	0.890501
5.925 	1.43108e-07 	0.876073
5.935 	1.34047e-07 	0.862447
5.945 	1.25891e-07 	0.849608
5.955 	1.1855e-07 	0.837537
5.965 	1.11945e-07 	0.826213
5.975 	1.06001e-07 	0.815614
5.985 	1.00655e-07 	0.805717
5.995 	9.58468e-08 	0.796496
6.005 	9.15229e-08 	0.787923
6.015 	8.76352e-08 	0.779972
6.025 	8.41403e-08 	0.772613
6.035 	8.09992e-08 	0.765816
6.045 	7.81764e-08 	0.759552
6.055 	7.56402e-08 	0.75379
6.065 	7.33619e-08 	0.748501
6.075 	7.13155e-08 	0.743654
6.085 	6.94778e-08 	0.739221
6.095 	6.78277e-08 	0.735172
6.105 	6.63464e-08 	0.731481
6.115 	6.50169e-08 	0.728121
6.125 	6.38237e-08 	0.725066
6.135 	6.27531e-08 	0.722293
6.145 	6.17927e-08 	0.719778
6.155 	6.09312e-08 	0.717501
6.165 	6.01586e-08 	0.71544
6.175 	5.94659e-08 	0.713578
6.185 	5.88448e-08 	0.711896
6.195 	5.82882e-08 	0.71038
6.205 	5.77893e-08 	0.709012
6.215 	5.73423e-08 	0.707781
6.225 	5.69418e-08 	0.706672
6.235 	5.6583e-08 	0.705675
6.245 	5.62618e-08 	0.704779
6.255 	5.59741e-08 	0.703974
6.265 	5.57165e-08 	0.703251
6.275 	5.5486e-08 	0.702602
6.285 	5.52797e-08 	0.70202
6.295 	5.5095e-08 	0.701498
6.305 	5.49298e-08 	0.70103
6.315 	5.47821e-08 	0.700611
6.325 	5.46499e-08 	0.700236
6.335 	5.45318e-08 	0.699899
6.345 	5.44261e-08 	0.699599
6.355 	5.43317e-08 	0.69933
6.365 	5.42472e-08 	0.699089
6.375 	5.41718e-08 	0.698874
6.385 	5.41044e-08 	0.698681
6.395 	5.40442e-08 	0.698509
6.405 	5.39905e-08 	0.698356
6.415 	5.39424e-08 	0.698218
6.425 	5.38996e-08 	0.698096
6.435 	5.38613e-08 	0.697986
6.445 	5.38271e-08 	0.697889
6.455 	5.37967e-08 	0.697801
6.465 	5.37695e-08 	0.697724
6.475 	5.37452e-08 	0.697654
6.485 	5.37235e-08 	0.697592
6.495 	5.37042e-08 	0.697537
6.505 	5.3687e-08 	0.697488
6.515 	5.36717e-08 	0.697444
6.525 	5.3658e-08 	0.697405
6.535 	5.36458e-08 	0.69737
6.545 	5.3635e-08 	0.697339
6.555 	5.36253e-08 	0.697311
6.565 	5.36167e-08 	0.697287
6.575 	5.3609e-08 	0.697265
6.585 	5.36022e-08 	0.697245
6.595 	5.35961e-08 	0.697228
6.605 	5.35907e-08 	0.697212
6.615 	5.35859e-08 	0.697199
6.625 	5.35816e-08 	0.697186
6.635 	5.35777e-08 	0.697176
6.645 	5.35743e-08 	0.697166
6.655 	5.35713e-08 	0.697157
6.665 	5.35686e-08 	0.69715
6.675 	5.35662e-08 	0.697143
6.685 	5.35641e-08 	0.697137
6.695 	5.35622e-08 	0.697131
6.705 	5.35606e-08 	0.697127
6.715 	5.35591e-08 	0.697122
6.725 	5.35577e-08 	0.697119
6.735 	5.35565e-08 	0.697115
6.745 	5.35555e-08 	0.697112
6.755 	5.35546e-08 	0.69711
6.765 	5.35537e-08 	0.697107
6.775 	5.3553e-08 	0.697105
6.785 	5.35523e-08 	0.697103
6.795 	5.35518e-08 	0.697102
6.805 	5.35512e-08 	0.6971
6.815 	5.35508e-08 	0.697099
6.825 	5.35504e-08 	0.697098
6.835 	5.355e-08 	0.697097
6.845 	5.35497e-08 	0.697096
6.855 	5.35494e-08 	0.697095
6.865 	5.35491e-08 	0.697094
6.875 	5.35489e-08 	0.697093
6.885 	5.35486e-08 	0.697093
6.895 	5.35485e-08 	0.697092
6.905 	5.35483e-08 	0.697092
6.915 	5.35481e-08 	0.697091
6.925 	5.3548e-08 	0.697091
6.935 	5.35478e-08 	0.69709
6.945 	5.35477e-08 	0.69709
6.955 	5.35476e-08 	0.69709
6.965 	5.35475e-08 	0.697089
6.975 	5.35474e-08 	0.697089
6.985 	5.35473e-08 	0.697089
6.995 	5.35472e-08 	0.697089
7.005 	5.35472e-08 	0.697088
7.015 	5.35471e-08 	0.697088
7.025 	5.3547e-08 	0.697088
7.035 	5.35469e-08 	0.697088
7.045 	5.35468e-08 	0.697087
7.055 	5.35468e-08 	0.697087
7.065 	5.35467e-08 	0.697087
7.075 	5.35466e-08 	0.697087
7.085 	5.35465e-08 	0.697087
7.095 	5.35465e-08 	0.697086
7.105 	5.35464e-08 	0.697086
7.115 	5.35463e-08 	0.697086
7.125 	5.35462e-08 	0.697085
7.135 	5.35461e-08 	0.697085
7.145 	5.3546e-08 	0.697085
7.155 	5.35459e-08 	0.697085
7.165 	5.35458e-08 	0.697084
7.175 	5.35457e-08 	0.697084
7.185 	5.35456e-08 	0.697084
7.195 	5.35455e-08 	0.697083
7.205 	5.35454e-08 	0.697083
7.215 	5.35452e-08 	0.697082
7.225 	5.35451e-08 	0.697082
7.235 	5.35449e-08 	0.697082
7.245 	5.35448e-08 	0.697081
7.255 	5.35446e-08 	0.697081
7.265 	5.35445e-08 	0.69708
7.275 	5.35443e-08 	0.697079
7.285 	5.35441e-08 	0.697079
7.295 	5.35439e-08 	0.697078
7.305 	5.35437e-08 	0.697078
7.315 	5.35435e-08 	0.697077
7.325 	5.35433e-08 	0.697076
7.335 	5.3543e-08 	0.697075
7.345 	5.35428e-08 	0.697075
7.355 	5.35425e-08 	0.697074
7.365 	5.35422e-08 	0.697073
7.375 	5.35419e-08 	0.697072
7.385 	5.35416e-08 	0.697071
7.395 	5.35413e-08 	0.69707
7.405 	5.35409e-08 	0.697069
7.415 	5.35406e-08 	0.697068
7.425 	5.35402e-08 	0.697067
7.435 	5.35398e-08 	0.697065
7.445 	5.35393e-08 	0.697064
7.455 	5.35389e-08 	0.697062
7.465 	5.35384e-08 	0.697061
7.475 	5.35379e-08 	0.697059
7.485 	5.35374e-08 	0.697058
7.495 	5.35369e-08 	0.697056
7.505 	5.35363e-08 	0.697054
7.515 	5.35357e-08 	0.697052
7.525 	5.3535e-08 	0.69705
7.535 	5.35344e-08 	0.697048
7.545 	5.35337e-08 	0.697046
7.555 	5.35329e-08 	0.697044
7.565 	5.35322e-08 	0.697041
7.575 	5.35313e-08 	0.697039
7.585 	5.35305e-08 	0.697036
7.595 	5.35296e-08 	0.697033
7.605 	5.35287e-08 	0.69703
7.615 	5.35277e-08 	0.697027
7.625 	5.35266e-08 	0.697024
7.635 	5.35255e-08 	0.69702
7.645 	5.35244e-08 	0.697017
7.655 	5.35232e-08 	0.697013
7.665 	5.35219e-08 	0.697009
7.675 	5.35206e-08 	0.697005
7.685 	5.35193e-08 	0.697
7.695 	5.35178e-08 	0.696996
7.705 	5.35163e-08 	0.696991
7.715 	5.35147e-08 	0.696986
7.725 	5.3513e-08 	0.696981
7.735 	5.35113e-08 	0.696975
7.745 	5.35095e-08 	0.696969
7.755 	5.35076e-08 	0.696963
7.765 	5.35056e-08 	0.696957
7.775 	5.35035e-08 	0.69695
7.785 	5.35013e-08 	0.696943
7.795 	5.3499e-08 	0.696936
7.805 	5.34966e-08 	0.696928
7.815 	5.34941e-08 	0.69692
7.825 	5.34915e-08 	0.696912
7.835 	5.34887e-08 	0.696903
7.845 	5.34859e-08 	0.696894
7.855 	5.34829e-08 	0.696885
7.865 	5.34797e-08 	0.696875
7.875 	5.34765e-08 	0.696864
7.885 	5.34731e-08 	0.696853
7.895 	5.34695e-08 	0.696842
7.905 	5.34658e-08 	0.69683
7.915 	5.34619e-08 	0.696818
7.925 	5.34578e-08 	0.696805
7.935 	5.34535e-08 	0.696791
7.945 	5.34491e-08 	0.696777
7.955 	5.34445e-08 	0.696762
7.965 	5.34396e-08 	0.696747
7.975 	5.34346e-08 	0.696731
7.985 	5.34293e-08 	0.696714
7.995 	5.34239e-08 	0.696696
8.005 	5.34181e-08 	0.696678
8.015 	5.34122e-08 	0.696659
8.025 	5.3406e-08 	0.696639
8.035 	5.33995e-08 	0.696618
8.045 	5.33927e-08 	0.696597
8.055 	5.33857e-08 	0.696574
8.065 	5.33783e-08 	0.696551
8.075 	5.33707e-08 	0.696526
8.085 	5.33627e-08 	0.696501
8.095 	5.33545e-08 	0.696474
8.105 	5.33458e-08 	0.696447
8.115 	5.33368e-08 	0.696418
8.125 	5.33275e-08 	0.696388
8.135 	5.33178e-08 	0.696357
8.145 	5.33076e-08 	0.696324
8.155 	5.32971e-08 	0.69629
8.165 	5.32862e-08 	0.696255
8.175 	5.32748e-08 	0.696219
8.185 	5.32629e-08 	0.696181
8.195 	5.32506e-08 	0.696141
8.205 	5.32378e-08 	0.6961
8.215 	5.32245e-08 	0.696057
8.225 	5.32106e-08 	0.696013
8.235 	5.31963e-08 	0.695966
8.245 	5.31813e-08 	0.695918
8.255 	5.31658e-08 	0.695868
8.265 	5.31497e-08 	0.695817
8.275 	5.3133e-08 	0.695763
8.285 	5.31156e-08 	0.695707
8.295 	5.30976e-08 	0.695649
8.305 	5.30789e-08 	0.695588
8.315 	5.30594e-08 	0.695526
8.325 	5.30393e-08 	0.695461
8.335 	5.30184e-08 	0.695393
8.345 	5.29967e-08 	0.695323
8.355 	5.29742e-08 	0.695251
8.365 	5.29509e-08 	0.695175
8.375 	5.29268e-08 	0.695097
8.385 	5.29017e-08 	0.695016
8.395 	5.28758e-08 	0.694932
8.405 	5.28489e-08 	0.694845
8.415 	5.2821e-08 	0.694755
8.425 	5.27921e-08 	0.694661
8.435 	5.27622e-08 	0.694564
8.445 	5.27313e-08 	0.694464
8.455 	5.26992e-08 	0.694359
8.465 	5.2666e-08 	0.694252
8.475 	5.26317e-08 	0.69414
8.485 	5.25961e-08 	0.694024
8.495 	5.25593e-08 	0.693905
8.505 	5.25213e-08 	0.693781
8.515 	5.24819e-08 	0.693652
8.525 	5.24412e-08 	0.693519
8.535 	5.23991e-08 	0.693382
8.545 	5.23556e-08 	0.69324
8.555 	5.23106e-08 	0.693093
8.565 	5.22641e-08 	0.692941
8.575 	5.22161e-08 	0.692783
8.585 	5.21665e-08 	0.692621
8.595 	5.21152e-08 	0.692452
8.605 	5.20622e-08 	0.692279
8.615 	5.20075e-08 	0.692099
8.625 	5.1951e-08 	0.691913
8.635 	5.18927e-08 	0.691721
8.645 	5.18325e-08 	0.691523
8.655 	5.17704e-08 	0.691318
8.665 	5.17063e-08 	0.691106
8.675 	5.16402e-08 	0.690888
8.685 	5.1572e-08 	0.690662
8.695 	5.15017e-08 	0.690429
8.705 	5.14291e-08 	0.690188
8.715 	5.13543e-08 	0.68994
8.725 	5.12773e-08 	0.689684
8.735 	5.11978e-08 	0.689419
8.745 	5.11159e-08 	0.689146
8.755 	5.10315e-08 	0.688865
8.765 	5.09446e-08 	0.688574
8.775 	5.08551e-08 	0.688275
8.785 	5.07629e-08 	0.687966
8.795 	5.0668e-08 	0.687647
8.805 	5.05703e-08 	0.687318
8.815 	5.04697e-08 	0.68698
8.825 	5.03661e-08 	0.686631
8.835 	5.02596e-08 	0.686271
8.845 	5.015e-08 	0.6859
8.855 	5.00373e-08 	0.685518
8.865 	4.99213e-08 	0.685124
8.875 	4.98021e-08 	0.684718
8.885 	4.96796e-08 	0.6843
8.895 	4.95536e-08 	0.68387
8.905 	4.94241e-08 	0.683427
8.915 	4.9291e-08 	0.68297
8.925 	4.91543e-08 	0.6825
8.935 	4.90138e-08 	0.682017
8.945 	4.88695e-08 	0.681518
8.955 	4.87214e-08 	0.681006
8.965 	4.85693e-08 	0.680478
8.975 	4.84132e-08 	0.679935
8.985 	4.82529e-08 	0.679376
8.995 	4.80885e-08 	0.678801
9.005 	4.79197e-08 	0.67821
9.015 	4.77466e-08 	0.677601
9.025 	4.75691e-08 	0.676976
9.035 	4.7387e-08 	0.676332
9.045 	4.72003e-08 	0.67567
9.055 	4.70089e-08 	0.674989
9.065 	4.68127e-08 	0.674289
9.075 	4.66117e-08 	0.673569
9.085 	4.64057e-08 	0.67283
9.095 	4.61947e-08 	0.672069
9.105 	4.59786e-08 	0.671287
9.115 	4.57573e-08 	0.670484
9.125 	4.55307e-08 	0.669658
9.135 	4.52987e-08 	0.668809
9.145 	4.50613e-08 	0.667937
9.155 	4.48183e-08 	0.667041
9.165 	4.45697e-08 	0.66612
9.175 	4.43153e-08 	0.665174
9.185 	4.40552e-08 	0.664202
9.195 	4.37892e-08 	0.663204
9.205 	4.35173e-08 	0.662179
9.215 	4.32393e-08 	0.661125
9.225 	4.29552e-08 	0.660043
9.235 	4.26649e-08 	0.658932
9.245 	4.23682e-08 	0.657791
9.255 	4.20653e-08 	0.656619
9.265 	4.17559e-08 	0.655415
9.275 	4.14399e-08 	0.654179
9.285 	4.11174e-08 	0.65291
9.295 	4.07882e-08 	0.651607
9.305 	4.04522e-08 	0.650269
9.315 	4.01095e-08 	0.648895
9.325 	3.97598e-08 	0.647484
9.335 	3.94033e-08 	0.646035
9.345 	3.90396e-08 	0.644548
9.355 	3.8669e-08 	0.64302
9.365 	3.82911e-08 	0.641452
9.375 	3.79061e-08 	0.639842
9.385 	3.75138e-08 	0.638189
9.395 	3.71142e-08 	0.636491
9.405 	3.67072e-08 	0.634748
9.415 	3.62928e-08 	0.632958
9.425 	3.5871e-08 	0.631119
9.435 	3.54416e-08 	0.629232
9.445 	3.50047e-08 	0.627293
9.455 	3.45602e-08 	0.625301
9.465 	3.41082e-08 	0.623256
9.475 	3.36484e-08 	0.621155
9.485 	3.3181e-08 	0.618996
9.495 	3.27059e-08 	0.616778
9.505 	3.22231e-08 	0.6145
9.515 	3.17326e-08 	0.612158
9.525 	3.12344e-08 	0.609751
9.535 	3.07284e-08 	0.607277
9.545 	3.02148e-08 	0.604734
9.555 	2.96933e-08 	0.602119
9.565 	2.91642e-08 	0.599429
9.575 	2.86274e-08 	0.596663
9.585 	2.8083e-08 	0.593817
9.595 	2.75308e-08 	0.590888
9.605 	2.69711e-08 	0.587873
9.615 	2.64038e-08 	0.584769
9.625 	2.5829e-08 	0.581572
9.635 	2.52468e-08 	0.578279
9.645 	2.46571e-08 	0.574884
9.655 	2.40601e-08 	0.571385
9.665 	2.34558e-08 	0.567776
9.675 	2.28444e-08 	0.564052
9.685 	2.22258e-08 	0.560208
9.695 	2.16003e-08 	0.556237
9.705 	2.09679e-08 	0.552134
9.715 	2.03286e-08 	0.547891
9.725 	1.96827e-08 	0.543501
9.735 	1.90303e-08 	0.538955
9.745 	1.83714e-08 	0.534243
9.755 	1.77063e-08 	0.529356
9.765 	1.7035e-08 	0.524282
9.775 	1.63578e-08 	0.519009
9.785 	1.56749e-08 	0.513522
9.795 	1.49862e-08 	0.507804
9.805 	1.42922e-08 	0.501839
9.815 	1.35929e-08 	0.495604
9.825 	1.28886e-08 	0.489076
9.835 	1.21794e-08 	0.482227
9.845 	1.14656e-08 	0.475024
9.855 	1.07474e-08 	0.467429
9.865 	1.00251e-08 	0.459396
9.875 	9.29882e-09 	0.45087
9.885 	8.56889e-09 	0.441782
9.895 	7.83555e-09 	0.432047
9.905 	7.09907e-09 	0.421558
9.915 	6.3597e-09 	0.410175
9.925 	5.61774e-09 	0.397708
9.935 	4.87347e-09 	0.383898
9.945 	4.12718e-09 	0.368366
9.955 	3.37917e-09 	0.350529
9.965 	2.62973e-09 	0.329413
9.975 	1.87918e-09 	0.303167
9.985 	1.12784e-09 	0.267445
9.995 	3.76001e-10 	0.205467
