0.000749886 	154256 	0.00424914 	0.846461 	-3.33435e-10 	3.34709e-10
0.0016069 	154276 	0.00425028 	1.52399 	-3.23072e-10 	3.23386e-10
0.0025654 	154289 	0.00425199 	2.27969 	-3.32057e-10 	3.32267e-10
0.00354676 	154298 	0.00425437 	3.08234 	-3.31058e-10 	3.32324e-10
0.0045362 	154304 	0.00425743 	3.90373 	-3.13385e-10 	3.14822e-10
0.00552938 	154309 	0.00426121 	4.73417 	-3.13396e-10 	3.14945e-10
0.0065246 	154314 	0.00426571 	5.56964 	-3.12003e-10 	3.12469e-10
0.00752105 	154318 	0.00427094 	6.40818 	-3.08086e-10 	3.06864e-10
0.00851829 	154321 	0.00427691 	7.24873 	-2.9637e-10 	2.94505e-10
0.00951608 	154324 	0.00428362 	8.09068 	-2.80299e-10 	2.77903e-10
0.0105143 	154327 	0.00429107 	8.93363 	-2.65423e-10 	2.63686e-10
0.0115127 	154329 	0.00429927 	9.77733 	-2.52246e-10 	2.50475e-10
0.0125114 	154332 	0.00430822 	10.6216 	-2.40084e-10 	2.38767e-10
0.0135103 	154334 	0.00431793 	11.4663 	-2.27571e-10 	2.26006e-10
0.0145093 	154336 	0.00432841 	12.3114 	-2.14916e-10 	2.13111e-10
0.0155084 	154338 	0.00433965 	13.1568 	-2.03372e-10 	2.00836e-10
0.0165076 	154340 	0.00435167 	14.0024 	-1.91871e-10 	1.90681e-10
0.0175069 	154342 	0.00436448 	14.8482 	-1.85575e-10 	1.85564e-10
0.0185062 	154344 	0.00437807 	15.6942 	-1.8064e-10 	1.80649e-10
0.0195056 	154346 	0.00439245 	16.5404 	-1.7777e-10 	1.77764e-10
0.020505 	154348 	0.00440764 	17.3867 	-1.7572e-10 	1.7563e-10
0.0215045 	154349 	0.00442363 	18.233 	-1.73962e-10 	1.73957e-10
0.022504 	154351 	0.00444045 	19.0795 	-1.72164e-10 	1.72156e-10
0.0235035 	154353 	0.00445809 	19.9261 	-1.70197e-10 	1.70185e-10
0.0245031 	154354 	0.00447656 	20.7728 	-1.67163e-10 	1.67153e-10
0.0255027 	154356 	0.00449588 	21.6195 	-1.63264e-10 	1.63258e-10
0.0265023 	154357 	0.00451605 	22.4663 	-1.60076e-10 	1.60084e-10
0.0275019 	154359 	0.00453709 	23.3132 	-1.56539e-10 	1.5654e-10
0.0285015 	154361 	0.00455901 	24.1601 	-1.50499e-10 	1.505e-10
0.0295012 	154362 	0.0045818 	25.007 	-1.4575e-10 	1.45754e-10
0.0305008 	154364 	0.0046055 	25.8541 	-1.40544e-10 	1.40538e-10
0.0315005 	154365 	0.00463011 	26.7011 	-1.36349e-10 	1.36351e-10
0.0325002 	154367 	0.00465564 	27.5482 	-1.30353e-10 	1.30363e-10
0.0334999 	154369 	0.0046821 	28.3954 	-1.25034e-10 	1.25029e-10
0.0344996 	154370 	0.00470951 	29.2426 	-1.20079e-10 	1.20073e-10
0.0354993 	154372 	0.00473789 	30.0898 	-1.14866e-10 	1.1486e-10
0.036499 	154373 	0.00476724 	30.9371 	-1.10489e-10 	1.10483e-10
0.0374987 	154375 	0.00479759 	31.7843 	-1.05866e-10 	1.05866e-10
0.0384985 	154377 	0.00482895 	32.6317 	-1.01331e-10 	1.01331e-10
0.0394982 	154378 	0.00486133 	33.479 	-9.69569e-11 	9.69569e-11
0.040498 	154380 	0.00489475 	34.3264 	-9.14234e-11 	9.14234e-11
0.0414977 	154382 	0.00492924 	35.1739 	-8.53038e-11 	8.53038e-11
0.0424975 	154383 	0.0049648 	36.0213 	-7.91155e-11 	7.91155e-11
0.0434972 	154385 	0.00500146 	36.8688 	-7.33247e-11 	7.33247e-11
0.044497 	154387 	0.00503923 	37.7163 	-6.78001e-11 	6.78001e-11
0.0454967 	154388 	0.00507814 	38.5639 	-6.26936e-11 	6.26936e-11
0.0464965 	154390 	0.00511821 	39.4115 	-5.6848e-11 	5.6848e-11
0.0474963 	154392 	0.00515946 	40.2591 	-5.12177e-11 	5.12177e-11
0.0484961 	154394 	0.00520191 	41.1067 	-4.52431e-11 	4.52431e-11
0.0494958 	154396 	0.00524559 	41.9544 	-4.00486e-11 	4.00486e-11
0.0504956 	154397 	0.00529051 	42.8021 	-3.52334e-11 	3.52334e-11
0.0514954 	154399 	0.00533671 	43.6498 	-3.01223e-11 	3.01223e-11
0.0524952 	154401 	0.0053842 	44.4976 	-2.56833e-11 	2.56833e-11
0.053495 	154403 	0.00543302 	45.3454 	-2.15182e-11 	2.15182e-11
0.0544948 	154405 	0.0054832 	46.1932 	-1.71819e-11 	1.71819e-11
0.0554946 	154407 	0.00553475 	47.041 	-1.34496e-11 	1.34496e-11
0.0564944 	154409 	0.00558771 	47.8889 	-9.42446e-12 	9.42446e-12
0.0574942 	154411 	0.0056421 	48.7368 	-5.94364e-12 	5.94364e-12
0.058494 	154414 	0.00569797 	49.5848 	-2.96675e-12 	2.96675e-12
0.0594938 	154416 	0.00575534 	50.4327 	-1.29734e-13 	1.29734e-13
0.0604936 	154418 	0.00581424 	51.2808 	1.54592e-12 	-1.54592e-12
0.0614934 	154420 	0.00587471 	52.1288 	2.83038e-12 	-2.83038e-12
0.0624932 	154422 	0.00593678 	52.9769 	4.0716e-12 	-4.0716e-12
0.063493 	154425 	0.00600049 	53.825 	4.96206e-12 	-4.96206e-12
0.0644928 	154427 	0.00606588 	54.6731 	5.5201e-12 	-5.5201e-12
0.0654926 	154429 	0.00613298 	55.5213 	5.77072e-12 	-5.77072e-12
0.0664924 	154432 	0.00620183 	56.3695 	6.23791e-12 	-6.23791e-12
0.0674922 	154434 	0.00627247 	57.2178 	6.96876e-12 	-6.96876e-12
0.068492 	154437 	0.00634495 	58.0661 	6.88299e-12 	-6.88299e-12
0.0694918 	154440 	0.00641931 	58.9144 	6.7136e-12 	-6.7136e-12
0.0704916 	154442 	0.0064956 	59.7627 	6.54413e-12 	-6.54413e-12
0.0714915 	154445 	0.00657385 	60.6112 	6.29906e-12 	-6.29906e-12
0.0724913 	154448 	0.00665412 	61.4596 	6.1076e-12 	-6.1076e-12
0.0734911 	154450 	0.00673645 	62.3081 	5.96689e-12 	-5.96689e-12
0.0744909 	154453 	0.0068209 	63.1566 	5.92271e-12 	-5.92088e-12
0.0754907 	154456 	0.00690752 	64.0052 	6.0878e-12 	-6.08664e-12
0.0764906 	154459 	0.00699636 	64.8538 	5.64449e-12 	-5.64424e-12
0.0774904 	154462 	0.00708748 	65.7024 	5.40887e-12 	-5.40722e-12
0.0784902 	154465 	0.00718093 	66.5511 	5.19509e-12 	-5.19235e-12
0.07949 	154469 	0.00727677 	67.3999 	4.81779e-12 	-4.81547e-12
0.0804898 	154472 	0.00737507 	68.2487 	4.27363e-12 	-4.27135e-12
0.0814897 	154475 	0.00747588 	69.0975 	3.56981e-12 	-3.56847e-12
0.0824895 	154479 	0.00757927 	69.9464 	2.71617e-12 	-2.71596e-12
0.0834893 	154482 	0.00768531 	70.7954 	1.58356e-12 	-1.57912e-12
0.0844891 	154486 	0.00779406 	71.6443 	3.16186e-13 	-3.08357e-13
0.085489 	154489 	0.0079056 	72.4934 	-9.46867e-13 	9.58003e-13
0.0864888 	154493 	0.00801999 	73.3425 	-1.74201e-12 	1.75564e-12
0.0874886 	154497 	0.00813732 	74.1917 	-2.66798e-12 	2.66877e-12
0.0884884 	154500 	0.00825766 	75.0409 	-3.16187e-12 	3.15027e-12
0.0894883 	154504 	0.00838109 	75.8901 	-3.55676e-12 	3.49391e-12
0.0904881 	154508 	0.0085077 	76.7395 	-3.88381e-12 	3.7759e-12
0.0914879 	154513 	0.00863756 	77.5889 	-3.82569e-12 	3.67336e-12
0.0924877 	154517 	0.00877077 	78.4383 	-3.73195e-12 	3.61427e-12
0.0934876 	154521 	0.00890741 	79.2878 	-3.52365e-12 	3.43911e-12
0.0944874 	154525 	0.00904758 	80.1374 	-3.08693e-12 	3.03432e-12
0.0954872 	154530 	0.00919137 	80.9871 	-2.54462e-12 	2.41143e-12
0.0964871 	154535 	0.00933889 	81.8368 	-2.20274e-12 	1.95431e-12
0.0974869 	154539 	0.00949024 	82.6866 	-1.7234e-12 	1.71892e-12
0.0984867 	154544 	0.00964551 	83.5365 	-1.26356e-12 	1.27992e-12
0.0994866 	154549 	0.00980483 	84.3864 	-8.00816e-13 	8.40145e-13
0.100486 	154554 	0.0099683 	85.2364 	-5.41964e-13 	6.04598e-13
0.101486 	154559 	0.010136 	86.0865 	-3.72053e-13 	4.52617e-13
0.102486 	154565 	0.0103082 	86.9367 	-1.02298e-13 	1.16443e-13
0.103486 	154570 	0.0104848 	87.7869 	2.48914e-13 	-2.68449e-13
0.104486 	154576 	0.0106661 	88.6373 	7.7474e-13 	-8.26859e-13
0.105486 	154581 	0.0108521 	89.4877 	1.47067e-12 	-1.50811e-12
0.106485 	154587 	0.011043 	90.3382 	1.99322e-12 	-2.01694e-12
0.107485 	154593 	0.011239 	91.1888 	2.68255e-12 	-2.69245e-12
0.108485 	154599 	0.0114402 	92.0395 	3.21372e-12 	-3.20812e-12
0.109485 	154606 	0.0116467 	92.8903 	3.66457e-12 	-3.66295e-12
0.110485 	154612 	0.0118587 	93.7412 	3.97204e-12 	-3.97197e-12
0.111485 	154619 	0.0120763 	94.5922 	4.4268e-12 	-4.42659e-12
0.112484 	154626 	0.0122997 	95.4434 	4.46061e-12 	-4.46014e-12
0.113484 	154632 	0.0125291 	96.2946 	4.63769e-12 	-4.63721e-12
0.114484 	154640 	0.0127647 	97.1459 	4.95415e-12 	-4.95343e-12
0.115484 	154647 	0.0130066 	97.9973 	4.88384e-12 	-4.8826e-12
0.116484 	154654 	0.013255 	98.8489 	4.43528e-12 	-4.43279e-12
0.117484 	154662 	0.0135101 	99.7006 	4.11327e-12 	-4.1097e-12
0.118483 	154670 	0.0137721 	100.552 	3.91771e-12 	-3.91261e-12
0.119483 	154678 	0.0140412 	101.404 	3.83478e-12 	-3.83107e-12
0.120483 	154686 	0.0143176 	102.256 	4.10478e-12 	-4.103e-12
0.121483 	154695 	0.0146015 	103.109 	4.27317e-12 	-4.27132e-12
0.122483 	154704 	0.0148932 	103.961 	4.12104e-12 	-4.12009e-12
0.123483 	154713 	0.0151929 	104.813 	3.86911e-12 	-3.86799e-12
0.124482 	154722 	0.0155007 	105.666 	3.5658e-12 	-3.56527e-12
0.125482 	154731 	0.0158171 	106.519 	3.28916e-12 	-3.28836e-12
0.126482 	154741 	0.0161421 	107.372 	2.91722e-12 	-2.91672e-12
0.127482 	154751 	0.0164761 	108.225 	2.45058e-12 	-2.44984e-12
0.128482 	154761 	0.0168194 	109.078 	1.91383e-12 	-1.91351e-12
0.129482 	154772 	0.0171721 	109.931 	1.37845e-12 	-1.378e-12
0.130481 	154782 	0.0175347 	110.785 	9.10787e-13 	-9.10145e-13
0.131481 	154793 	0.0179073 	111.639 	5.09859e-13 	-5.09149e-13
0.132481 	154805 	0.0182904 	112.493 	1.77159e-13 	-1.7637e-13
0.133481 	154817 	0.0186841 	113.347 	-8.30755e-14 	8.38666e-14
0.134481 	154829 	0.0190889 	114.201 	-3.43266e-13 	3.43635e-13
0.135481 	154841 	0.019505 	115.056 	-3.73565e-13 	3.73543e-13
0.13648 	154854 	0.0199329 	115.91 	-1.74938e-13 	1.74925e-13
0.13748 	154867 	0.0203728 	116.765 	-1.97176e-13 	1.97177e-13
0.13848 	154880 	0.0208252 	117.621 	-1.88973e-13 	1.88973e-13
0.13948 	154894 	0.0212904 	118.476 	-1.87831e-13 	1.87831e-13
0.14048 	154908 	0.0217687 	119.332 	-1.86933e-13 	1.86933e-13
0.14148 	154923 	0.0222607 	120.187 	-1.85769e-13 	1.85769e-13
0.14248 	154938 	0.0227666 	121.044 	-2.16196e-13 	2.16196e-13
0.143479 	154953 	0.023287 	121.9 	-1.83014e-13 	1.83014e-13
0.144479 	154969 	0.0238223 	122.757 	-1.81724e-13 	1.81724e-13
0.145479 	154985 	0.0243729 	123.614 	-1.59333e-13 	1.59333e-13
0.146479 	155002 	0.0249392 	124.471 	-1.9667e-13 	1.9667e-13
0.147479 	155019 	0.0255219 	125.328 	-1.79123e-13 	1.79123e-13
0.148479 	155037 	0.0261213 	126.186 	-1.36984e-13 	1.36965e-13
0.149478 	155055 	0.026738 	127.044 	-3.83363e-14 	3.85124e-14
0.150478 	155074 	0.0273725 	127.902 	-9.84328e-14 	9.87972e-14
0.151478 	155094 	0.0280254 	128.761 	-1.75081e-13 	1.75209e-13
0.152478 	155114 	0.0286971 	129.62 	-1.24959e-13 	1.25295e-13
0.153478 	155134 	0.0293884 	130.48 	-7.58489e-14 	7.59696e-14
0.154478 	155155 	0.0300997 	131.339 	-1.72473e-13 	1.7239e-13
0.155477 	155177 	0.0308317 	132.199 	-1.7068e-13 	1.70787e-13
0.156477 	155199 	0.031585 	133.06 	-1.73915e-13 	1.73944e-13
0.157477 	155223 	0.0323603 	133.921 	-2.2407e-13 	2.2416e-13
0.158477 	155246 	0.0331581 	134.782 	-1.43979e-13 	1.44076e-13
0.159477 	155271 	0.0339793 	135.644 	-1.90639e-13 	1.90771e-13
0.160477 	155296 	0.0348246 	136.506 	-1.98046e-13 	1.98064e-13
0.161476 	155322 	0.0356945 	137.369 	-1.65354e-13 	1.65294e-13
0.162476 	155349 	0.03659 	138.232 	-1.23369e-13 	1.23436e-13
0.163476 	155376 	0.0375117 	139.095 	-1.98279e-13 	1.98407e-13
0.164476 	155405 	0.0384604 	139.959 	-1.62589e-13 	1.6254e-13
0.165476 	155434 	0.039437 	140.824 	-1.61626e-13 	1.61688e-13
0.166476 	155464 	0.0404424 	141.689 	-1.54623e-13 	1.5453e-13
0.167476 	155496 	0.0414772 	142.554 	-1.11931e-13 	1.11804e-13
0.168475 	155528 	0.0425425 	143.42 	-1.72578e-13 	1.7222e-13
0.169475 	155561 	0.0436392 	144.287 	-2.73628e-13 	2.73065e-13
0.170475 	155595 	0.0447681 	145.154 	-4.18199e-13 	4.17385e-13
0.171475 	155630 	0.0459303 	146.022 	-6.0996e-13 	6.08917e-13
0.172475 	155666 	0.0471267 	146.891 	-7.25218e-13 	7.23944e-13
0.173475 	155704 	0.0483583 	147.76 	-8.287e-13 	8.28482e-13
0.174474 	155742 	0.0496263 	148.63 	-9.26427e-13 	9.26276e-13
0.175474 	155782 	0.0509315 	149.5 	-9.48718e-13 	9.48618e-13
0.176474 	155823 	0.0522752 	150.371 	-8.90852e-13 	8.90772e-13
0.177474 	155866 	0.0536584 	151.243 	-8.03789e-13 	8.03781e-13
0.178474 	155909 	0.0550823 	152.116 	-6.85044e-13 	6.84989e-13
0.179474 	155954 	0.0565482 	152.99 	-4.75598e-13 	4.75545e-13
0.180473 	156001 	0.0580571 	153.864 	-3.26548e-13 	3.26529e-13
0.181473 	156049 	0.0596103 	154.739 	-2.46561e-13 	2.46605e-13
0.182473 	156098 	0.0612091 	155.615 	-1.86081e-13 	1.86131e-13
0.183473 	156149 	0.0628549 	156.492 	-1.48197e-13 	1.48161e-13
0.184473 	156202 	0.0645488 	157.37 	-1.47718e-13 	1.47609e-13
0.185473 	156256 	0.0662924 	158.249 	-1.36078e-13 	1.36115e-13
0.186473 	156313 	0.068087 	159.129 	-7.74347e-14 	7.74877e-14
0.187472 	156370 	0.069934 	160.01 	-4.33586e-14 	4.30561e-14
0.188472 	156430 	0.0718349 	160.892 	0 	0
0.189472 	156492 	0.0737912 	161.775 	2.96497e-14 	-2.96497e-14
0.190472 	156556 	0.0758043 	162.659 	7.60874e-14 	-7.60874e-14
0.191472 	156621 	0.077876 	163.545 	8.8319e-14 	-8.8319e-14
0.192472 	156689 	0.0800077 	164.431 	6.25221e-14 	-6.25221e-14
0.193471 	156759 	0.0822012 	165.319 	3.12652e-14 	-3.12652e-14
0.194471 	156832 	0.084458 	166.208 	3.43581e-14 	-3.43581e-14
0.195471 	156906 	0.0867799 	167.099 	0 	0
0.196471 	156983 	0.0891685 	167.991 	-3.5308e-14 	3.53813e-14
0.197471 	157063 	0.0916258 	168.884 	-4.06191e-14 	4.07563e-14
0.198471 	157145 	0.0941534 	169.779 	-1.15796e-14 	1.17685e-14
0.199471 	157230 	0.0967532 	170.675 	5.76606e-14 	-5.74153e-14
0.20047 	157317 	0.0994271 	171.573 	1.06404e-13 	-1.06015e-13
0.20147 	157408 	0.102177 	172.472 	1.32247e-13 	-1.31808e-13
0.20247 	157501 	0.105005 	173.373 	1.47446e-13 	-1.47045e-13
0.20347 	157597 	0.107913 	174.276 	1.35285e-13 	-1.34859e-13
0.20447 	157697 	0.110902 	175.181 	9.06775e-14 	-9.03176e-14
0.20547 	157800 	0.113976 	176.087 	6.80894e-14 	-6.77303e-14
0.206469 	157906 	0.117136 	176.996 	7.12826e-14 	-7.09355e-14
0.207469 	158015 	0.120383 	177.906 	4.65863e-14 	-4.62913e-14
0.208469 	158128 	0.123722 	178.819 	4.55453e-14 	-4.52764e-14
0.209469 	158245 	0.127152 	179.733 	1.63657e-14 	-1.61157e-14
0.210469 	158366 	0.130677 	180.65 	-4.15653e-15 	4.44197e-15
0.211469 	158490 	0.1343 	181.569 	-2.47858e-14 	2.50497e-14
0.212468 	158619 	0.138021 	182.49 	-7.77424e-14 	7.79457e-14
0.213468 	158752 	0.141844 	183.414 	-1.19759e-13 	1.19846e-13
0.214468 	158889 	0.145771 	184.34 	-1.74307e-13 	1.74395e-13
0.215468 	159030 	0.149804 	185.269 	-2.21644e-13 	2.21717e-13
0.216468 	159177 	0.153945 	186.2 	-2.1196e-13 	2.12009e-13
0.217468 	159327 	0.158198 	187.135 	-1.78369e-13 	1.78432e-13
0.218468 	159483 	0.162564 	188.072 	-1.51439e-13 	1.51495e-13
0.219467 	159644 	0.167046 	189.011 	-1.36198e-13 	1.36204e-13
0.220467 	159810 	0.171646 	189.954 	-1.3004e-13 	1.30043e-13
0.221467 	159982 	0.176367 	190.9 	-1.23902e-13 	1.2388e-13
0.222467 	160159 	0.181212 	191.849 	-1.18411e-13 	1.18396e-13
0.223467 	160341 	0.186183 	192.802 	-1.02155e-13 	1.02155e-13
0.224467 	160530 	0.191282 	193.758 	-6.24886e-14 	6.24886e-14
0.225466 	160725 	0.196513 	194.717 	-7.12103e-14 	7.12103e-14
0.226466 	160926 	0.201877 	195.68 	-8.77945e-14 	8.77945e-14
0.227466 	161133 	0.207378 	196.647 	-1.32035e-13 	1.32035e-13
0.228466 	161347 	0.213018 	197.617 	-1.37481e-13 	1.37481e-13
0.229466 	161568 	0.2188 	198.592 	-1.66659e-13 	1.66659e-13
0.230466 	161796 	0.224727 	199.571 	-1.95244e-13 	1.95244e-13
0.231466 	162031 	0.2308 	200.553 	-1.84291e-13 	1.84291e-13
0.232465 	162274 	0.237024 	201.541 	-1.88272e-13 	1.88272e-13
0.233465 	162525 	0.2434 	202.532 	-1.79961e-13 	1.79961e-13
0.234465 	162783 	0.249931 	203.529 	-1.88695e-13 	1.88695e-13
0.235465 	163050 	0.25662 	204.53 	-1.88196e-13 	1.88196e-13
0.236465 	163325 	0.26347 	205.536 	-1.74573e-13 	1.74573e-13
0.237465 	163609 	0.270483 	206.547 	-1.74547e-13 	1.74547e-13
0.238464 	163902 	0.277663 	207.563 	-1.62038e-13 	1.62038e-13
0.239464 	164204 	0.285011 	208.584 	-1.62676e-13 	1.62676e-13
0.240464 	164516 	0.292531 	209.611 	-1.8299e-13 	1.8299e-13
0.241464 	164837 	0.300225 	210.644 	-1.8544e-13 	1.8544e-13
0.242464 	165169 	0.308096 	211.683 	-1.78267e-13 	1.78267e-13
0.243464 	165511 	0.316147 	212.727 	-1.27033e-13 	1.27033e-13
0.244464 	165863 	0.32438 	213.778 	-9.09432e-14 	9.09432e-14
0.245463 	166227 	0.332798 	214.835 	-7.89011e-14 	7.89011e-14
0.246463 	166602 	0.341403 	215.899 	-1.03904e-13 	1.03904e-13
0.247463 	166988 	0.350199 	216.969 	-1.05261e-13 	1.05261e-13
0.248463 	167386 	0.359188 	218.046 	-9.64636e-14 	9.64636e-14
0.249463 	167797 	0.368371 	219.131 	-1.25153e-13 	1.25153e-13
0.250463 	168220 	0.377753 	220.222 	-1.36524e-13 	1.36524e-13
0.251462 	168656 	0.387336 	221.321 	-1.46437e-13 	1.46437e-13
0.252462 	169106 	0.397121 	222.428 	-1.54603e-13 	1.54603e-13
0.253462 	169569 	0.407112 	223.543 	-1.6044e-13 	1.6044e-13
0.254462 	170046 	0.417311 	224.666 	-1.62834e-13 	1.62834e-13
0.255462 	170538 	0.42772 	225.797 	-1.59643e-13 	1.59643e-13
0.256462 	171044 	0.438342 	226.936 	-1.6542e-13 	1.6542e-13
0.257462 	171566 	0.449179 	228.085 	-1.71755e-13 	1.71755e-13
0.258461 	172103 	0.460233 	229.242 	-1.53309e-13 	1.53309e-13
0.259461 	172657 	0.471507 	230.408 	-1.36133e-13 	1.36133e-13
0.260461 	173227 	0.483003 	231.584 	-1.20296e-13 	1.20296e-13
0.261461 	173814 	0.494723 	232.77 	-1.05998e-13 	1.05998e-13
0.262461 	174418 	0.506669 	233.965 	-9.37068e-14 	9.37068e-14
0.263461 	175041 	0.518844 	235.171 	-8.44483e-14 	8.44483e-14
0.26446 	175681 	0.531249 	236.387 	-5.85836e-14 	5.85836e-14
0.26546 	176341 	0.543886 	237.613 	-4.2076e-14 	4.2076e-14
0.26646 	177020 	0.556758 	238.851 	-2.13429e-14 	2.13429e-14
0.26746 	177718 	0.569866 	240.099 	-1.18051e-14 	1.18051e-14
0.26846 	178437 	0.583212 	241.359 	-2.91987e-15 	2.91987e-15
0.26946 	179177 	0.596798 	242.631 	5.15274e-15 	-5.15274e-15
0.27046 	179938 	0.610626 	243.914 	1.22126e-14 	-1.22126e-14
0.271459 	180721 	0.624697 	245.209 	1.77571e-14 	-1.77571e-14
0.272459 	181526 	0.639014 	246.517 	2.05985e-14 	-2.05985e-14
0.273459 	182354 	0.653577 	247.838 	1.79526e-14 	-1.79526e-14
0.274459 	183206 	0.668389 	249.171 	9.43204e-15 	-9.43204e-15
0.275459 	184082 	0.683451 	250.517 	-2.21148e-15 	2.21148e-15
0.276459 	184983 	0.698764 	251.877 	-4.83238e-16 	4.83238e-16
0.277458 	185909 	0.71433 	253.251 	-3.19622e-15 	3.19622e-15
0.278458 	186861 	0.73015 	254.638 	-4.70332e-16 	4.70332e-16
0.279458 	187840 	0.746226 	256.04 	-4.51956e-16 	4.51956e-16
0.280458 	188846 	0.762558 	257.456 	0 	1.0625e-34
0.281458 	189880 	0.779148 	258.887 	1.40248e-15 	-1.40248e-15
0.282458 	190942 	0.795998 	260.333 	1.13669e-14 	-1.13669e-14
0.283457 	192033 	0.813108 	261.794 	1.07001e-14 	-1.07001e-14
0.284457 	193155 	0.830479 	263.27 	8.82678e-16 	-8.82678e-16
0.285457 	194307 	0.848112 	264.763 	1.31156e-15 	-1.31156e-15
0.286457 	195490 	0.866009 	266.271 	0 	9.42321e-35
0.287457 	196705 	0.88417 	267.796 	0 	0
0.288457 	197953 	0.902596 	269.337 	-8.27133e-15 	8.27133e-15
0.289457 	199234 	0.921288 	270.894 	-1.23647e-14 	1.23647e-14
0.290456 	200550 	0.940246 	272.469 	-1.11867e-14 	1.11867e-14
0.291456 	201901 	0.959472 	274.061 	-6.72587e-15 	6.72587e-15
0.292456 	203287 	0.978966 	275.67 	-1.04696e-14 	1.04696e-14
0.293456 	204710 	0.998729 	277.297 	-6.10653e-15 	6.10653e-15
0.294456 	206170 	1.01876 	278.942 	-1.14196e-15 	1.14196e-15
0.295456 	207668 	1.03906 	280.605 	2.48907e-15 	-2.48907e-15
0.296455 	209205 	1.05963 	282.286 	-1.83804e-15 	1.83804e-15
0.297455 	210782 	1.08048 	283.986 	0 	6.96384e-35
0.298455 	212399 	1.10159 	285.704 	0 	0
0.299455 	214058 	1.12298 	287.442 	0 	6.27856e-35
0.300455 	215759 	1.14463 	289.198 	-3.5069e-15 	3.5069e-15
0.301455 	217503 	1.16656 	290.974 	-4.09292e-16 	4.09292e-16
0.302455 	219291 	1.18876 	292.768 	-4.91379e-15 	4.91379e-15
0.303454 	221124 	1.21124 	294.583 	-6.16038e-15 	6.16038e-15
0.304454 	223003 	1.23399 	296.417 	-6.32508e-17 	6.32508e-17
0.305454 	224929 	1.25701 	298.271 	6.922e-16 	-6.922e-16
0.306454 	226902 	1.2803 	300.145 	0 	5.4826e-35
0.307454 	228923 	1.30387 	302.039 	0 	0
0.308454 	230994 	1.32771 	303.953 	-9.64717e-15 	9.64717e-15
0.309453 	233116 	1.35182 	305.887 	-1.88829e-14 	1.88829e-14
0.310453 	235289 	1.37621 	307.842 	-1.64787e-14 	1.64787e-14
0.311453 	237514 	1.40087 	309.817 	-1.21793e-14 	1.21793e-14
0.312453 	239792 	1.42581 	311.813 	-8.22369e-15 	8.22369e-15
0.313453 	242125 	1.45102 	313.829 	-4.71042e-15 	4.71042e-15
0.314453 	244512 	1.4765 	315.866 	3.21063e-15 	-3.21063e-15
0.315453 	246956 	1.50226 	317.923 	6.82863e-16 	-6.82863e-16
0.316452 	249457 	1.52829 	320.001 	-5.94839e-16 	5.94839e-16
0.317452 	252016 	1.5546 	322.099 	-3.13069e-16 	3.13069e-16
0.318452 	254634 	1.58118 	324.218 	-3.29129e-15 	3.29129e-15
0.319452 	257312 	1.60803 	326.358 	-1.2877e-14 	1.2877e-14
0.320452 	260051 	1.63516 	328.518 	-2.17594e-14 	2.17594e-14
0.321452 	262852 	1.66257 	330.699 	-2.87648e-14 	2.87648e-14
0.322451 	265716 	1.69025 	332.9 	-2.67952e-14 	2.67952e-14
0.323451 	268644 	1.7182 	335.121 	-3.43268e-14 	3.43268e-14
0.324451 	271638 	1.74643 	337.363 	-3.92119e-14 	3.92119e-14
0.325451 	274697 	1.77494 	339.624 	-3.52656e-14 	3.52656e-14
0.326451 	277824 	1.80372 	341.906 	-3.14409e-14 	3.14409e-14
0.327451 	281019 	1.83278 	344.208 	-2.7316e-14 	2.7316e-14
0.328451 	284283 	1.86212 	346.53 	-2.00477e-14 	2.00477e-14
0.32945 	287617 	1.89173 	348.871 	-2.06798e-14 	2.06798e-14
0.33045 	291023 	1.92163 	351.231 	-1.9172e-14 	1.9172e-14
0.33145 	294501 	1.9518 	353.611 	-1.72968e-14 	1.72968e-14
0.33245 	298053 	1.98226 	356.01 	-1.56264e-14 	1.56264e-14
0.33345 	301678 	2.013 	358.428 	-2.17602e-14 	2.17602e-14
0.33445 	305379 	2.04401 	360.865 	-2.63201e-14 	2.63201e-14
0.33545 	309156 	2.07531 	363.321 	-2.34736e-14 	2.34736e-14
0.336449 	313009 	2.10689 	365.797 	-2.07662e-14 	2.07662e-14
0.337449 	316941 	2.13876 	368.29 	-1.81908e-14 	1.81908e-14
0.338449 	320952 	2.17091 	370.801 	-1.57397e-14 	1.57397e-14
0.339449 	325044 	2.20335 	373.33 	-1.33855e-14 	1.33855e-14
0.340449 	329216 	2.23608 	375.876 	-1.09117e-14 	1.09117e-14
0.341449 	333471 	2.2691 	378.439 	-1.29848e-14 	1.29848e-14
0.342448 	337809 	2.3024 	381.018 	-9.12619e-15 	9.12619e-15
0.343448 	342231 	2.336 	383.613 	-5.45012e-15 	5.45012e-15
0.344448 	346736 	2.36989 	386.223 	-1.77927e-15 	1.77927e-15
0.345448 	351326 	2.40407 	388.846 	2.66097e-16 	-2.66097e-16
0.346448 	356000 	2.43853 	391.483 	3.05885e-15 	-3.05885e-15
0.347448 	360757 	2.47326 	394.13 	1.14326e-15 	-1.14326e-15
0.348448 	365595 	2.50826 	396.785 	-1.73596e-15 	1.73596e-15
0.349447 	370510 	2.54349 	399.444 	-2.47697e-15 	2.47697e-15
0.350447 	375495 	2.57891 	402.1 	-5.2383e-15 	5.2383e-15
0.351447 	380540 	2.61448 	404.744 	-7.58286e-15 	7.58286e-15
0.352447 	385626 	2.65009 	407.361 	-4.8189e-15 	4.8189e-15
0.353447 	390724 	2.6856 	409.927 	-4.58617e-15 	4.58617e-15
0.354447 	395787 	2.72077 	412.406 	-2.72824e-15 	2.72824e-15
0.355446 	400738 	2.75521 	414.741 	-2.50246e-16 	2.50246e-16
0.356446 	405454 	2.78831 	416.839 	0 	2.41655e-35
0.357446 	409733 	2.81908 	418.552 	-2.40222e-15 	2.40222e-15
0.358446 	413253 	2.84589 	419.644 	-4.66875e-15 	4.66875e-15
0.359446 	415490 	2.86615 	419.732 	-5.3606e-15 	5.3606e-15
0.360446 	415614 	2.8757 	418.203 	-7.5247e-15 	7.5247e-15
0.361446 	412329 	2.86806 	414.066 	-6.20608e-15 	6.20608e-15
0.362445 	403693 	2.83342 	405.754 	-5.62093e-15 	5.62093e-15
0.363445 	387009 	2.75792 	390.849 	-8.13609e-15 	8.13609e-15
0.364445 	359088 	2.62447 	365.83 	-5.81031e-15 	5.81031e-15
0.365445 	317485 	2.41795 	326.227 	-6.87588e-15 	6.87588e-15
0.366445 	263269 	2.13811 	268.138 	-4.75502e-15 	4.75502e-15
0.367445 	204198 	1.81723 	192.652 	-2.9506e-16 	2.9506e-16
0.368444 	153624 	1.52241 	112.45 	0 	-8.10466e-38
0.369444 	121690 	1.31864 	50.1335 	0 	1.55874e-38
0.370444 	107179 	1.2166 	17.4359 	-7.34581e-16 	7.34581e-16
0.371444 	102120 	1.17808 	5.2407 	-4.77713e-15 	4.77713e-15
0.372444 	100596 	1.1659 	1.4842 	-5.68654e-15 	5.68654e-15
0.373444 	100163 	1.16237 	0.411214 	-9.74123e-15 	9.74123e-15
0.374444 	100043 	1.16138 	0.112809 	-1.05268e-14 	1.05268e-14
0.375443 	100010 	1.1611 	0.0307493 	-8.07522e-15 	8.07522e-15
0.376443 	100001 	1.16103 	0.00833647 	-2.43326e-15 	2.43326e-15
0.377443 	99998.5 	1.16101 	0.00224864 	0 	0
0.378443 	99997.8 	1.161 	0.000603534 	0 	0
0.379443 	99997.6 	1.161 	0.000161196 	1.56953e-15 	-1.56953e-15
0.380443 	99997.6 	1.161 	4.28448e-05 	2.71733e-18 	-2.71733e-18
0.381442 	99997.6 	1.161 	1.13332e-05 	1.55474e-15 	-1.55474e-15
0.382442 	99997.6 	1.161 	2.98358e-06 	0 	0
0.383442 	99997.6 	1.161 	7.81741e-07 	0 	0
0.384442 	99997.6 	1.161 	2.03858e-07 	-1.52918e-15 	1.52918e-15
0.385442 	99997.6 	1.161 	5.29053e-08 	0 	0
0.386442 	99997.6 	1.161 	1.36603e-08 	0 	0
0.387442 	99997.6 	1.161 	3.5051e-09 	0 	0
0.388441 	99997.6 	1.161 	8.90594e-10 	2.9967e-15 	-2.9967e-15
0.389441 	99997.6 	1.161 	2.23126e-10 	2.98749e-15 	-2.98749e-15
0.390441 	99997.6 	1.161 	5.91777e-11 	8.73602e-18 	-8.73602e-18
0.391441 	99997.6 	1.161 	2.55963e-11 	0 	0
0.392441 	99997.6 	1.161 	9.8116e-12 	0 	0
0.393441 	99997.6 	1.161 	-5.95888e-12 	1.46029e-15 	-1.46029e-15
0.39444 	99997.6 	1.161 	-1.13282e-11 	0 	0
0.39544 	99997.6 	1.161 	6.63389e-13 	0 	0
0.39644 	99997.6 	1.161 	1.99788e-11 	0 	0
0.39744 	99997.6 	1.161 	3.07676e-11 	0 	0
0.39844 	99997.6 	1.161 	2.62229e-11 	0 	0
0.39944 	99997.6 	1.161 	1.91281e-11 	0 	0
0.40044 	99997.6 	1.161 	1.9719e-11 	0 	0
0.401439 	99997.6 	1.161 	2.19124e-11 	0 	0
0.402439 	99997.6 	1.161 	3.48906e-11 	5.96115e-16 	-5.96115e-16
0.403439 	99997.6 	1.161 	4.59081e-11 	3.97407e-15 	-3.97407e-15
0.404439 	99997.6 	1.161 	3.53624e-11 	1.01029e-14 	-1.01029e-14
0.405439 	99997.6 	1.161 	2.54707e-11 	1.34449e-14 	-1.34449e-14
0.406439 	99997.6 	1.161 	2.87959e-11 	1.4026e-14 	-1.4026e-14
0.407438 	99997.6 	1.161 	2.12506e-11 	6.41929e-15 	-6.41929e-15
0.408438 	99997.6 	1.161 	8.17224e-12 	1.56298e-15 	-1.56298e-15
0.409438 	99997.6 	1.161 	1.12536e-12 	-5.67529e-16 	5.67529e-16
0.410438 	99997.6 	1.161 	-1.63772e-12 	0 	0
0.411438 	99997.6 	1.161 	5.98095e-12 	0 	0
0.412438 	99997.6 	1.161 	5.23316e-12 	0 	0
0.413438 	99997.6 	1.161 	-3.64059e-12 	0 	0
0.414437 	99997.6 	1.161 	2.02866e-12 	0 	0
0.415437 	99997.6 	1.161 	5.02529e-12 	0 	0
0.416437 	99997.6 	1.161 	-2.88964e-12 	0 	0
0.417437 	99997.6 	1.161 	-1.25848e-11 	0 	0
0.418437 	99997.6 	1.161 	-5.92284e-12 	-8.63535e-16 	8.63535e-16
0.419437 	99997.6 	1.161 	1.72851e-11 	8.52384e-16 	-8.52384e-16
0.420436 	99997.6 	1.161 	3.42911e-11 	0 	0
0.421436 	99997.6 	1.161 	4.46985e-11 	0 	0
0.422436 	99997.6 	1.161 	2.86196e-11 	-1.26737e-15 	1.26737e-15
0.423436 	99997.6 	1.161 	1.5777e-11 	-4.35249e-18 	4.35249e-18
0.424436 	99997.6 	1.161 	1.25603e-11 	-1.2575e-15 	1.2575e-15
0.425436 	99997.6 	1.161 	-2.01197e-13 	-4.07145e-18 	4.07145e-18
0.426436 	99997.6 	1.161 	-1.56087e-11 	-1.24493e-15 	1.24493e-15
0.427435 	99997.6 	1.161 	-2.37724e-11 	0 	0
0.428435 	99997.6 	1.161 	-1.05772e-11 	-8.22031e-16 	8.22031e-16
0.429435 	99997.6 	1.161 	-3.60387e-12 	8.1625e-16 	-8.1625e-16
0.430435 	99997.6 	1.161 	-7.98366e-12 	0 	0
0.431435 	99997.6 	1.161 	-3.25604e-11 	1.21615e-15 	-1.21615e-15
0.432435 	99997.6 	1.161 	-3.49493e-11 	1.86864e-18 	-1.86864e-18
0.433434 	99997.6 	1.161 	-2.33736e-11 	1.20395e-15 	-1.20395e-15
0.434434 	99997.6 	1.161 	-7.41656e-12 	0 	0
0.435434 	99997.6 	1.161 	1.53299e-11 	7.96097e-16 	-7.96097e-16
0.436434 	99997.6 	1.161 	2.94457e-11 	-7.90007e-16 	7.90007e-16
0.437434 	99997.6 	1.161 	3.31349e-11 	0 	0
0.438434 	99997.6 	1.161 	1.91867e-11 	-9.22231e-16 	9.22231e-16
0.439434 	99997.6 	1.161 	2.0069e-12 	-4.1856e-15 	4.1856e-15
0.440433 	99997.6 	1.161 	2.19741e-12 	-9.76724e-15 	9.76724e-15
0.441433 	99997.6 	1.161 	1.41583e-11 	-8.35237e-15 	8.35237e-15
0.442433 	99997.6 	1.161 	-4.58199e-12 	0 	0
0.443433 	99997.6 	1.161 	-3.78705e-11 	8.27219e-15 	-8.27219e-15
0.444433 	99997.6 	1.161 	-3.49263e-11 	9.62853e-15 	-9.62853e-15
0.445433 	99997.6 	1.161 	-1.81666e-11 	4.13094e-15 	-4.13094e-15
0.446433 	99997.6 	1.161 	-1.12897e-11 	9.27119e-16 	-9.27119e-16
0.447432 	99997.6 	1.161 	1.66462e-11 	0 	0
0.448432 	99997.6 	1.161 	4.2744e-11 	9.54766e-16 	-9.54766e-16
0.449432 	99997.6 	1.161 	4.60382e-11 	4.14423e-15 	-4.14423e-15
0.450432 	99997.6 	1.161 	2.38568e-11 	6.24716e-16 	-6.24716e-16
0.451432 	99997.6 	1.161 	1.97465e-11 	-1.86578e-15 	1.86578e-15
0.452432 	99997.6 	1.161 	2.6536e-11 	-6.55666e-15 	6.55666e-15
0.453431 	99997.6 	1.161 	1.62977e-11 	-4.62021e-15 	4.62021e-15
0.454431 	99997.6 	1.161 	1.80198e-11 	-4.88407e-15 	4.88407e-15
0.455431 	99997.6 	1.161 	1.69983e-11 	-7.32921e-15 	7.32921e-15
0.456431 	99997.6 	1.161 	1.29323e-11 	-1.19373e-14 	1.19373e-14
0.457431 	99997.6 	1.161 	1.18463e-11 	-1.86892e-14 	1.86892e-14
0.458431 	99997.6 	1.161 	1.0735e-11 	-2.70981e-14 	2.70981e-14
0.459431 	99997.6 	1.161 	-6.25008e-12 	-3.00982e-14 	3.00982e-14
0.46043 	99997.6 	1.161 	-2.25797e-11 	-3.03784e-14 	3.03784e-14
0.46143 	99997.6 	1.161 	-2.88202e-11 	-2.69862e-14 	2.69862e-14
0.46243 	99997.6 	1.161 	-3.80618e-11 	-1.73257e-14 	1.73257e-14
0.46343 	99997.6 	1.161 	-3.4355e-11 	-9.81422e-15 	9.81422e-15
0.46443 	99997.6 	1.161 	-2.04351e-11 	-4.43531e-15 	4.43531e-15
0.46543 	99997.6 	1.161 	-1.48845e-11 	-1.16982e-15 	1.16982e-15
0.466429 	99997.6 	1.161 	5.50934e-13 	0 	0
0.467429 	99997.6 	1.161 	2.65267e-11 	0 	0
0.468429 	99997.6 	1.161 	2.01483e-11 	0 	0
0.469429 	99997.6 	1.161 	7.30989e-12 	0 	0
0.470429 	99997.6 	1.161 	-2.64059e-12 	0 	0
0.471429 	99997.6 	1.161 	-3.27725e-12 	6.73757e-16 	-6.73757e-16
0.472429 	99997.6 	1.161 	6.7258e-12 	3.28885e-15 	-3.28885e-15
0.473428 	99997.6 	1.161 	-8.61605e-12 	-1.70447e-16 	1.70447e-16
0.474428 	99997.6 	1.161 	-3.02768e-11 	-5.62472e-15 	5.62472e-15
0.475428 	99997.6 	1.161 	-3.00915e-11 	-5.04451e-15 	5.04451e-15
0.476428 	99997.6 	1.161 	-1.46089e-11 	-6.46144e-15 	6.46144e-15
0.477428 	99997.6 	1.161 	-5.3421e-12 	-1.91121e-15 	1.91121e-15
0.478428 	99997.6 	1.161 	-7.37424e-12 	6.41744e-16 	-6.41744e-16
0.479427 	99997.6 	1.161 	-1.78255e-11 	3.70602e-15 	-3.70602e-15
0.480427 	99997.6 	1.161 	-3.15647e-11 	8.70948e-16 	-8.70948e-16
0.481427 	99997.6 	1.161 	-2.74051e-11 	0 	0
0.482427 	99997.6 	1.161 	-9.72628e-12 	0 	0
0.483427 	99997.6 	1.161 	-1.32048e-11 	-3.6314e-16 	3.6314e-16
0.484427 	99997.6 	1.161 	-2.10082e-11 	-2.65384e-15 	2.65384e-15
0.485427 	99997.6 	1.161 	-3.29536e-12 	-6.85685e-15 	6.85685e-15
0.486426 	99997.6 	1.161 	1.81646e-11 	-5.29998e-15 	5.29998e-15