/*--------------------------------*- C++ -*----------------------------------*\
| =========                 |                                                 |
| \\      /  F ield         | OpenFOAM: The Open Source CFD Toolbox           |
|  \\    /   O peration     | Version:  2312                                  |
|   \\  /    A nd           | Website:  www.openfoam.com                      |
|    \\/     M anipulation  |                                                 |
\*---------------------------------------------------------------------------*/
FoamFile
{
    version     2.0;
    format      ascii;
    arch        "LSB;label=32;scalar=64";
    class       volScalarField;
    location    "0.007";
    object      p;
}
// * * * * * * * * * * * * * * * * * * * * * * * * * * * * * * * * * * * * * //

dimensions      [1 -1 -2 0 0 0 0];

internalField   nonuniform List<scalar> 
100
(
110318
110318
110318
110317
110317
110315
110312
110307
110296
110276
110240
110179
110079
109921
109682
109333
108843
108182
107323
106243
104929
103379
101598
99602.7
97412.9
95054.6
92555.8
89945.4
87249.8
84494.2
81701.5
78892.1
76083.6
73291.1
70527.5
67803.6
65128.3
62510.3
59955.2
57467.9
55052.8
52713.7
50454.1
48277.1
46186.1
44184.6
42278.1
40470.3
38767.8
37178.8
35713.8
34385.6
33208.7
32197.9
31364.6
30713.4
30236.1
29917.7
29717.2
29598.5
29532.5
29497.9
29480.8
29472.8
29469.6
29468.7
29469.2
29470.3
29471.9
29473.7
29475.8
29478
29480.3
29482.7
29485.2
29487.8
29490.7
29493.7
29496.9
29500.3
29503.9
29507.8
29512
29518.2
29530.2
29544.6
29488.8
29036.8
27410.1
23762.6
18439.4
13430.7
10462.4
9319.18
8987.95
8902.76
8881.63
8876.44
8875.17
8874.86
)
;

boundaryField
{
    sides
    {
        type            zeroGradient;
    }
    empty
    {
        type            empty;
    }
}


// ************************************************************************* //
