/*--------------------------------*- C++ -*----------------------------------*\
| =========                 |                                                 |
| \\      /  F ield         | OpenFOAM: The Open Source CFD Toolbox           |
|  \\    /   O peration     | Version:  2312                                  |
|   \\  /    A nd           | Website:  www.openfoam.com                      |
|    \\/     M anipulation  |                                                 |
\*---------------------------------------------------------------------------*/
FoamFile
{
    version     2.0;
    format      ascii;
    arch        "LSB;label=32;scalar=64";
    class       volScalarField;
    location    "0.007";
    object      p;
}
// * * * * * * * * * * * * * * * * * * * * * * * * * * * * * * * * * * * * * //

dimensions      [1 -1 -2 0 0 0 0];

internalField   nonuniform List<scalar> 
100
(
99185.7
99185.7
99185.7
99185.7
99185.6
99185.4
99185
99184.1
99182.1
99178
99169.8
99154.3
99125.9
99076
98991.7
98855.5
98644.2
98329.9
97881.8
97268
96460
95435.2
94179.8
92690.6
90974.3
89046.7
86930.3
84652.1
82240.9
79725.9
77134.9
74493.4
71824.7
69148.8
66484
63845
61243.8
58690.9
56195.3
53764.4
51404.4
49121
46919.1
44804.7
42781.4
40854.5
39030.3
37316.2
35721.5
34257.7
32938.3
31779.6
30795.3
29995.9
29382.6
28942.6
28649.9
28469.5
28366.1
28310.5
28282
28267.9
28261.3
28258.5
28257.9
28258.5
28259.8
28261.5
28263.6
28265.9
28268.3
28270.9
28273.7
28276.6
28279.6
28282.8
28286.3
28289.9
28293.7
28297.8
28302.2
28307.7
28315.2
28320
28278.4
28009.2
27045.8
24706.5
20769.8
16234.8
12733
10914.8
10226.8
10008.8
9944.47
9925.91
9920.61
9919.11
9918.68
9918.56
)
;

boundaryField
{
    sides
    {
        type            zeroGradient;
    }
    empty
    {
        type            empty;
    }
}


// ************************************************************************* //
