/*--------------------------------*- C++ -*----------------------------------*\
| =========                 |                                                 |
| \\      /  F ield         | OpenFOAM: The Open Source CFD Toolbox           |
|  \\    /   O peration     | Version:  2312                                  |
|   \\  /    A nd           | Website:  www.openfoam.com                      |
|    \\/     M anipulation  |                                                 |
\*---------------------------------------------------------------------------*/
FoamFile
{
    version     2.0;
    format      ascii;
    arch        "LSB;label=32;scalar=64";
    class       volScalarField;
    location    "0.007";
    object      rho;
}
// * * * * * * * * * * * * * * * * * * * * * * * * * * * * * * * * * * * * * //

dimensions      [1 -3 0 0 0 0 0];

internalField   nonuniform List<scalar> 
100
(
1.116
1.116
1.116
1.116
1.11599
1.11598
1.11596
1.11592
1.11584
1.1157
1.11544
1.115
1.11428
1.11313
1.1114
1.10887
1.10531
1.10051
1.09424
1.08634
1.0767
1.06526
1.05206
1.03718
1.02074
1.00291
0.983874
0.963817
0.942922
0.921363
0.899301
0.876881
0.854233
0.831471
0.808694
0.785989
0.76343
0.741092
0.719029
0.697288
0.675916
0.654957
0.634453
0.614446
0.594981
0.576107
0.557895
0.540399
0.523706
0.507922
0.493178
0.479631
0.467461
0.456848
0.447938
0.440799
0.435351
0.431435
0.428597
0.426411
0.424491
0.422485
0.420061
0.416875
0.412559
0.406728
0.3991
0.389577
0.378228
0.365352
0.351434
0.337076
0.32291
0.309504
0.297309
0.286624
0.277595
0.270236
0.26445
0.260063
0.256861
0.254615
0.253107
0.252151
0.251607
0.25133
0.250787
0.247933
0.237947
0.215304
0.181112
0.14687
0.124747
0.115458
0.112605
0.111851
0.111662
0.111615
0.111604
0.111601
)
;

boundaryField
{
    sides
    {
        type            zeroGradient;
    }
    empty
    {
        type            empty;
    }
}


// ************************************************************************* //
