/*--------------------------------*- C++ -*----------------------------------*\
| =========                 |                                                 |
| \\      /  F ield         | OpenFOAM: The Open Source CFD Toolbox           |
|  \\    /   O peration     | Version:  2312                                  |
|   \\  /    A nd           | Website:  www.openfoam.com                      |
|    \\/     M anipulation  |                                                 |
\*---------------------------------------------------------------------------*/
FoamFile
{
    version     2.0;
    format      ascii;
    arch        "LSB;label=32;scalar=64";
    class       volScalarField;
    location    "0.007";
    object      T;
}
// * * * * * * * * * * * * * * * * * * * * * * * * * * * * * * * * * * * * * //

dimensions      [0 0 0 1 0 0 0];

internalField   nonuniform List<scalar> 
100
(
348.432
348.432
348.432
348.431
348.431
348.43
348.427
348.422
348.412
348.393
348.36
348.304
348.211
348.065
347.843
347.519
347.064
346.448
345.644
344.628
343.385
341.906
340.19
338.245
336.082
333.717
331.169
328.459
325.604
322.625
319.538
316.36
313.106
309.789
306.42
303.01
299.57
296.108
292.633
289.152
285.672
282.201
278.748
275.32
271.928
268.584
265.303
262.101
259.001
256.03
253.224
250.628
248.294
246.279
244.636
243.405
242.601
242.216
242.185
242.461
243.029
243.919
245.217
247.071
249.694
253.359
258.33
264.82
272.988
282.878
294.395
307.287
321.146
335.449
349.599
363.006
375.157
385.679
394.381
401.254
406.435
410.168
412.735
414.431
415.522
416.199
416.316
414.611
407.636
390.129
359.142
321.69
294.38
283.031
279.809
279.005
278.809
278.761
278.75
278.747
)
;

boundaryField
{
    sides
    {
        type            zeroGradient;
    }
    empty
    {
        type            empty;
    }
}


// ************************************************************************* //
