/*--------------------------------*- C++ -*----------------------------------*\
| =========                 |                                                 |
| \\      /  F ield         | OpenFOAM: The Open Source CFD Toolbox           |
|  \\    /   O peration     | Version:  2312                                  |
|   \\  /    A nd           | Website:  www.openfoam.com                      |
|    \\/     M anipulation  |                                                 |
\*---------------------------------------------------------------------------*/
FoamFile
{
    version     2.0;
    format      ascii;
    arch        "LSB;label=32;scalar=64";
    class       volScalarField;
    location    "0.007";
    object      T;
}
// * * * * * * * * * * * * * * * * * * * * * * * * * * * * * * * * * * * * * //

dimensions      [0 0 0 1 0 0 0];

internalField   nonuniform List<scalar> 
100
(
300
300
300
300
300
300
299.999
299.999
299.997
299.993
299.986
299.972
299.947
299.903
299.828
299.707
299.52
299.24
298.842
298.294
297.57
296.647
295.51
294.148
292.562
290.759
288.75
286.553
284.185
281.666
279.015
276.25
273.39
270.449
267.444
264.385
261.286
258.156
255.006
251.845
248.682
245.526
242.388
239.28
236.213
233.201
230.263
227.421
224.705
222.15
219.8
217.709
215.931
214.516
213.5
212.89
212.667
212.803
213.289
214.163
215.53
217.573
220.547
224.758
230.521
238.118
247.75
259.481
273.218
288.673
305.378
322.7
339.916
356.283
371.155
384.049
394.712
403.121
409.445
413.982
417.089
419.122
420.399
421.152
421.377
420.405
416.17
404.996
383.556
353.679
325.62
309.175
302.795
300.808
300.231
300.066
300.019
300.005
300.001
300
)
;

boundaryField
{
    sides
    {
        type            zeroGradient;
    }
    empty
    {
        type            empty;
    }
}


// ************************************************************************* //
