/*--------------------------------*- C++ -*----------------------------------*\
| =========                 |                                                 |
| \\      /  F ield         | OpenFOAM: The Open Source CFD Toolbox           |
|  \\    /   O peration     | Version:  2312                                  |
|   \\  /    A nd           | Website:  www.openfoam.com                      |
|    \\/     M anipulation  |                                                 |
\*---------------------------------------------------------------------------*/
FoamFile
{
    version     2.0;
    format      ascii;
    arch        "LSB;label=32;scalar=64";
    class       volScalarField;
    location    "0.007";
    object      thermo:e;
}
// * * * * * * * * * * * * * * * * * * * * * * * * * * * * * * * * * * * * * //

dimensions      [0 2 -2 0 0 0 0];

internalField   nonuniform List<scalar> 
100
(
247130
247130
247130
247129
247129
247128
247126
247123
247116
247103
247080
247041
246977
246876
246722
246498
246184
245758
245201
244499
243639
242616
241429
240083
238585
236948
235184
233307
231330
229266
227127
224925
222669
220368
218031
215666
213278
210874
208461
206043
203625
201213
198811
196427
194067
191740
189456
187226
185067
182997
181041
179231
177604
176198
175052
174193
173632
173363
173342
173534
173931
174552
175457
176750
178580
181135
184600
189119
194805
201683
209685
218633
228241
238148
247937
257203
265594
272854
278855
283592
287162
289732
291501
292668
293419
293886
293966
292792
287989
275923
254533
228619
209675
201789
199549
198990
198854
198821
198813
198811
)
;

boundaryField
{
    sides
    {
        type            zeroGradient;
    }
    empty
    {
        type            empty;
    }
}


// ************************************************************************* //
