/*--------------------------------*- C++ -*----------------------------------*\
| =========                 |                                                 |
| \\      /  F ield         | OpenFOAM: The Open Source CFD Toolbox           |
|  \\    /   O peration     | Version:  2312                                  |
|   \\  /    A nd           | Website:  www.openfoam.com                      |
|    \\/     M anipulation  |                                                 |
\*---------------------------------------------------------------------------*/
FoamFile
{
    version     2.0;
    format      ascii;
    arch        "LSB;label=32;scalar=64";
    class       volScalarField;
    location    "0.007";
    object      thermo:e;
}
// * * * * * * * * * * * * * * * * * * * * * * * * * * * * * * * * * * * * * //

dimensions      [0 2 -2 0 0 0 0];

internalField   nonuniform List<scalar> 
100
(
213576
213576
213576
213576
213576
213576
213576
213575
213574
213572
213567
213557
213539
213509
213457
213373
213243
213049
212772
212392
211890
211249
210459
209513
208412
207159
205764
204237
202591
200840
198997
197074
195085
193038
190946
188817
186659
184478
182283
180080
177874
175673
173484
171314
169173
167069
165017
163031
161132
159345
157702
156239
154994
154005
153293
152866
152710
152805
153145
153757
154714
156144
158225
161170
165197
170503
177224
185402
194965
205710
217309
229319
241239
252558
262831
271730
279083
284878
289235
292360
294498
295898
296777
297295
297450
296781
293866
286170
271389
250758
231341
219943
215516
214137
213737
213622
213589
213580
213577
213577
)
;

boundaryField
{
    sides
    {
        type            zeroGradient;
    }
    empty
    {
        type            empty;
    }
}


// ************************************************************************* //
