/*--------------------------------*- C++ -*----------------------------------*\
| =========                 |                                                 |
| \\      /  F ield         | OpenFOAM: The Open Source CFD Toolbox           |
|  \\    /   O peration     | Version:  2312                                  |
|   \\  /    A nd           | Website:  www.openfoam.com                      |
|    \\/     M anipulation  |                                                 |
\*---------------------------------------------------------------------------*/
FoamFile
{
    version     2.0;
    format      ascii;
    arch        "LSB;label=32;scalar=64";
    class       volVectorField;
    location    "0.007";
    object      U;
}
// * * * * * * * * * * * * * * * * * * * * * * * * * * * * * * * * * * * * * //

dimensions      [0 1 -1 0 0 0 0];

internalField   nonuniform List<vector> 
100
(
(8.71911e-05 0 0)
(0.000218267 0 0)
(0.000528631 0 0)
(0.00123893 0 0)
(0.00280902 0 0)
(0.00615967 0 0)
(0.0130595 0 0)
(0.0267627 0 0)
(0.052995 0 0)
(0.101372 0 0)
(0.187267 0 0)
(0.334027 0 0)
(0.575224 0 0)
(0.956417 0 0)
(1.53575 0 0)
(2.38268 0 0)
(3.5746 0 0)
(5.19126 0 0)
(7.30813 0 0)
(9.98967 0 0)
(13.2839 0 0)
(17.2195 0 0)
(21.8047 0 0)
(27.0299 0 0)
(32.8701 0 0)
(39.2896 0 0)
(46.2443 0 0)
(53.6869 0 0)
(61.5715 0 0)
(69.8528 0 0)
(78.4873 0 0)
(87.4351 0 0)
(96.6595 0 0)
(106.128 0 0)
(115.81 0 0)
(125.679 0 0)
(135.709 0 0)
(145.876 0 0)
(156.159 0 0)
(166.539 0 0)
(176.994 0 0)
(187.504 0 0)
(198.044 0 0)
(208.588 0 0)
(219.105 0 0)
(229.556 0 0)
(239.89 0 0)
(250.054 0 0)
(259.97 0 0)
(269.543 0 0)
(278.647 0 0)
(287.134 0 0)
(294.829 0 0)
(301.554 0 0)
(307.159 0 0)
(311.557 0 0)
(314.759 0 0)
(316.898 0 0)
(318.243 0 0)
(319.039 0 0)
(319.484 0 0)
(319.722 0 0)
(319.846 0 0)
(319.912 0 0)
(319.948 0 0)
(319.97 0 0)
(319.985 0 0)
(319.998 0 0)
(320.01 0 0)
(320.022 0 0)
(320.035 0 0)
(320.049 0 0)
(320.066 0 0)
(320.084 0 0)
(320.104 0 0)
(320.127 0 0)
(320.152 0 0)
(320.18 0 0)
(320.21 0 0)
(320.242 0 0)
(320.277 0 0)
(320.315 0 0)
(320.359 0 0)
(320.429 0 0)
(320.563 0 0)
(320.652 0 0)
(319.607 0 0)
(313.365 0 0)
(293.357 0 0)
(249.599 0 0)
(179.646 0 0)
(99.2227 0 0)
(39.0457 0 0)
(11.6131 0 0)
(3.01795 0 0)
(0.750708 0 0)
(0.184445 0 0)
(0.0451265 0 0)
(0.0110109 0 0)
(0.00267777 0 0)
)
;

boundaryField
{
    sides
    {
        type            zeroGradient;
    }
    empty
    {
        type            empty;
    }
}


// ************************************************************************* //
