/*--------------------------------*- C++ -*----------------------------------*\
| =========                 |                                                 |
| \\      /  F ield         | OpenFOAM: The Open Source CFD Toolbox           |
|  \\    /   O peration     | Version:  2312                                  |
|   \\  /    A nd           | Website:  www.openfoam.com                      |
|    \\/     M anipulation  |                                                 |
\*---------------------------------------------------------------------------*/
FoamFile
{
    version     2.0;
    format      ascii;
    arch        "LSB;label=32;scalar=64";
    class       volVectorField;
    location    "0.007";
    object      U;
}
// * * * * * * * * * * * * * * * * * * * * * * * * * * * * * * * * * * * * * //

dimensions      [0 1 -1 0 0 0 0];

internalField   nonuniform List<vector> 
100
(
(6.17924e-06 0 0)
(1.73513e-05 0 0)
(4.70805e-05 0 0)
(0.000123463 0 0)
(0.000312835 0 0)
(0.000765709 0 0)
(0.00180992 0 0)
(0.00413021 0 0)
(0.00909631 0 0)
(0.0193283 0 0)
(0.0396104 0 0)
(0.0782651 0 0)
(0.149052 0 0)
(0.273531 0 0)
(0.483626 0 0)
(0.823842 0 0)
(1.35237 0 0)
(2.14028 0 0)
(3.26818 0 0)
(4.82049 0 0)
(6.87805 0 0)
(9.51052 0 0)
(12.7701 0 0)
(16.6879 0 0)
(21.273 0 0)
(26.5147 0 0)
(32.3859 0 0)
(38.8476 0 0)
(45.8538 0 0)
(53.3547 0 0)
(61.3003 0 0)
(69.642 0 0)
(78.3344 0 0)
(87.3345 0 0)
(96.6015 0 0)
(106.101 0 0)
(115.802 0 0)
(125.674 0 0)
(135.69 0 0)
(145.822 0 0)
(156.043 0 0)
(166.323 0 0)
(176.63 0 0)
(186.926 0 0)
(197.172 0 0)
(207.317 0 0)
(217.296 0 0)
(227.026 0 0)
(236.402 0 0)
(245.295 0 0)
(253.542 0 0)
(260.96 0 0)
(267.375 0 0)
(272.642 0 0)
(276.702 0 0)
(279.611 0 0)
(281.54 0 0)
(282.724 0 0)
(283.403 0 0)
(283.772 0 0)
(283.968 0 0)
(284.072 0 0)
(284.13 0 0)
(284.165 0 0)
(284.188 0 0)
(284.205 0 0)
(284.22 0 0)
(284.234 0 0)
(284.249 0 0)
(284.265 0 0)
(284.282 0 0)
(284.301 0 0)
(284.323 0 0)
(284.347 0 0)
(284.374 0 0)
(284.403 0 0)
(284.436 0 0)
(284.471 0 0)
(284.509 0 0)
(284.549 0 0)
(284.595 0 0)
(284.654 0 0)
(284.734 0 0)
(284.747 0 0)
(284.069 0 0)
(280.368 0 0)
(268.155 0 0)
(239.493 0 0)
(189.248 0 0)
(123.234 0 0)
(61.6242 0 0)
(23.5629 0 0)
(7.5499 0 0)
(2.2382 0 0)
(0.645417 0 0)
(0.184129 0 0)
(0.0521926 0 0)
(0.0147033 0 0)
(0.00411218 0 0)
(0.00113964 0 0)
)
;

boundaryField
{
    sides
    {
        type            zeroGradient;
    }
    empty
    {
        type            empty;
    }
}


// ************************************************************************* //
