0.000749886 	185215 	0.000120756 	1.10731 	0 	0
0.0016069 	185215 	0.000120768 	1.80004 	0 	0
0.0025654 	185215 	0.000120793 	2.84331 	0 	0
0.00354676 	185215 	0.000120839 	3.92862 	0 	0
0.0045362 	185215 	0.000120909 	5.02366 	0 	0
0.00552938 	185215 	0.000121004 	6.12347 	0 	0
0.0065246 	185215 	0.00012112 	7.22558 	0 	0
0.00752105 	185215 	0.000121254 	8.32906 	0 	0
0.00851829 	185215 	0.000121403 	9.43344 	0 	0
0.00951608 	185215 	0.000121563 	10.5384 	0 	0
0.0105143 	185215 	0.000121732 	11.6438 	0 	0
0.0115127 	185215 	0.000121906 	12.7496 	0 	0
0.0125114 	185215 	0.000122082 	13.8555 	0 	0
0.0135103 	185215 	0.000122256 	14.9617 	0 	0
0.0145093 	185215 	0.000122425 	16.068 	0 	0
0.0155084 	185215 	0.000122589 	17.1745 	0 	0
0.0165076 	185215 	0.000122746 	18.281 	0 	0
0.0175069 	185215 	0.000122896 	19.3876 	0 	0
0.0185062 	185215 	0.000123038 	20.4943 	0 	0
0.0195056 	185215 	0.000123172 	21.6011 	0 	0
0.020505 	185215 	0.000123294 	22.7079 	0 	0
0.0215045 	185215 	0.000123398 	23.8147 	0 	0
0.022504 	185215 	0.000123478 	24.9216 	0 	0
0.0235035 	185215 	0.000123529 	26.0285 	0 	0
0.0245031 	185215 	0.000123553 	27.1355 	0 	0
0.0255027 	185215 	0.000123561 	28.2424 	0 	0
0.0265023 	185215 	0.000123563 	29.3494 	0 	0
0.0275019 	185215 	0.000123563 	30.4565 	0 	0
0.0285015 	185215 	0.000123564 	31.5635 	0 	0
0.0295012 	185215 	0.000123564 	32.6705 	0 	0
0.0305008 	185215 	0.000123564 	33.7776 	0 	0
0.0315005 	185216 	0.000123564 	34.8847 	0 	0
0.0325002 	185216 	0.000123565 	35.9918 	0 	0
0.0334999 	185216 	0.000123567 	37.0989 	0 	0
0.0344996 	185216 	0.000123569 	38.206 	0 	0
0.0354993 	185216 	0.000123573 	39.3131 	0 	0
0.036499 	185216 	0.000123579 	40.4202 	0 	0
0.0374987 	185216 	0.000123589 	41.5273 	0 	0
0.0384985 	185216 	0.000123604 	42.6345 	0 	0
0.0394982 	185216 	0.000123626 	43.7416 	0 	0
0.040498 	185216 	0.000123656 	44.8488 	0 	0
0.0414977 	185216 	0.000123696 	45.9559 	0 	0
0.0424975 	185216 	0.000123748 	47.0631 	0 	0
0.0434972 	185216 	0.000123815 	48.1703 	0 	0
0.044497 	185216 	0.000123899 	49.2775 	0 	0
0.0454967 	185216 	0.000124002 	50.3846 	0 	0
0.0464965 	185216 	0.000124126 	51.4918 	0 	0
0.0474963 	185216 	0.000124273 	52.599 	0 	0
0.0484961 	185216 	0.000124448 	53.7062 	0 	0
0.0494958 	185216 	0.000124652 	54.8134 	0 	0
0.0504956 	185216 	0.000124888 	55.9206 	0 	0
0.0514954 	185216 	0.000125161 	57.0279 	0 	0
0.0524952 	185216 	0.000125475 	58.1351 	0 	0
0.053495 	185216 	0.000125833 	59.2423 	0 	0
0.0544948 	185216 	0.000126241 	60.3495 	0 	0
0.0554946 	185216 	0.000126704 	61.4568 	0 	0
0.0564944 	185216 	0.000127227 	62.5641 	0 	0
0.0574942 	185216 	0.000127816 	63.6713 	0 	0
0.058494 	185216 	0.000128478 	64.7786 	0 	0
0.0594938 	185216 	0.000129219 	65.8859 	0 	0
0.0604936 	185217 	0.000130045 	66.9932 	0 	0
0.0614934 	185217 	0.000130964 	68.1006 	0 	0
0.0624932 	185217 	0.000131983 	69.208 	0 	0
0.063493 	185217 	0.00013311 	70.3154 	0 	0
0.0644928 	185217 	0.000134351 	71.4228 	0 	0
0.0654926 	185217 	0.000135717 	72.5302 	0 	0
0.0664924 	185217 	0.000137215 	73.6377 	0 	0
0.0674922 	185217 	0.000138854 	74.7453 	0 	0
0.068492 	185217 	0.000140644 	75.8528 	0 	0
0.0694918 	185217 	0.000142595 	76.9605 	0 	0
0.0704916 	185217 	0.000144718 	78.0681 	0 	0
0.0714915 	185217 	0.000147024 	79.1759 	0 	0
0.0724913 	185217 	0.000149526 	80.2837 	0 	0
0.0734911 	185217 	0.000152238 	81.3915 	0 	0
0.0744909 	185217 	0.000155172 	82.4994 	0 	0
0.0754907 	185217 	0.000158346 	83.6074 	0 	0
0.0764906 	185217 	0.000161773 	84.7155 	0 	0
0.0774904 	185218 	0.000165473 	85.8236 	0 	0
0.0784902 	185218 	0.000169464 	86.9318 	0 	0
0.07949 	185218 	0.000173765 	88.0401 	0 	0
0.0804898 	185218 	0.000178399 	89.1485 	0 	0
0.0814897 	185218 	0.000183389 	90.257 	0 	0
0.0824895 	185218 	0.000188759 	91.3656 	0 	0
0.0834893 	185218 	0.000194537 	92.4743 	0 	0
0.0844891 	185218 	0.00020075 	93.583 	0 	0
0.085489 	185218 	0.000207431 	94.6919 	0 	0
0.0864888 	185218 	0.000214612 	95.8008 	0 	0
0.0874886 	185218 	0.00022233 	96.9098 	0 	0
0.0884884 	185219 	0.000230623 	98.019 	0 	0
0.0894883 	185219 	0.000239533 	99.1282 	0 	0
0.0904881 	185219 	0.000249107 	100.237 	0 	0
0.0914879 	185219 	0.000259392 	101.347 	0 	0
0.0924877 	185219 	0.000270442 	102.456 	0 	0
0.0934876 	185219 	0.000282315 	103.566 	0 	0
0.0944874 	185219 	0.000295073 	104.676 	0 	0
0.0954872 	185220 	0.000308784 	105.785 	0 	0
0.0964871 	185220 	0.000323522 	106.895 	0 	0
0.0974869 	185220 	0.000339367 	108.005 	0 	0
0.0984867 	185220 	0.000356406 	109.115 	0 	0
0.0994866 	185220 	0.000374734 	110.225 	0 	0
0.100486 	185221 	0.000394456 	111.335 	0 	0
0.101486 	185221 	0.000415683 	112.445 	0 	0
0.102486 	185221 	0.000438539 	113.555 	0 	0
0.103486 	185221 	0.000463159 	114.666 	0 	0
0.104486 	185222 	0.00048969 	115.776 	0 	0
0.105486 	185222 	0.000518293 	116.886 	0 	0
0.106485 	185222 	0.000549143 	117.997 	0 	0
0.107485 	185223 	0.000582433 	119.107 	0 	0
0.108485 	185223 	0.000618372 	120.218 	0 	0
0.109485 	185224 	0.000657191 	121.329 	0 	0
0.110485 	185224 	0.00069914 	122.439 	0 	0
0.111485 	185225 	0.000744495 	123.55 	0 	0
0.112484 	185225 	0.000793555 	124.661 	0 	0
0.113484 	185226 	0.000846647 	125.772 	0 	0
0.114484 	185226 	0.000904128 	126.883 	0 	0
0.115484 	185227 	0.000966387 	127.994 	0 	0
0.116484 	185228 	0.00103384 	129.105 	0 	0
0.117484 	185228 	0.00110696 	130.216 	0 	0
0.118483 	185229 	0.00118623 	131.327 	0 	0
0.119483 	185230 	0.00127218 	132.438 	0 	0
0.120483 	185231 	0.00136539 	133.549 	0 	0
0.121483 	185232 	0.00146648 	134.66 	0 	0
0.122483 	185233 	0.00157611 	135.771 	0 	0
0.123483 	185234 	0.00169497 	136.881 	0 	0
0.124482 	185236 	0.0018238 	137.992 	0 	0
0.125482 	185237 	0.00196338 	139.102 	0 	0
0.126482 	185239 	0.00211451 	140.213 	0 	0
0.127482 	185240 	0.00227803 	141.323 	0 	0
0.128482 	185242 	0.00245481 	142.432 	0 	0
0.129482 	185244 	0.00264571 	143.542 	0 	0
0.130481 	185246 	0.00285162 	144.651 	0 	0
0.131481 	185249 	0.00307341 	145.76 	0 	0
0.132481 	185251 	0.00331195 	146.868 	0 	0
0.133481 	185254 	0.00356808 	147.976 	0 	0
0.134481 	185257 	0.0038426 	149.084 	0 	0
0.135481 	185260 	0.00413628 	150.191 	0 	0
0.13648 	185264 	0.00444981 	151.298 	0 	0
0.13748 	185268 	0.00478386 	152.404 	0 	0
0.13848 	185272 	0.00513902 	153.511 	0 	0
0.13948 	185276 	0.0055158 	154.617 	0 	0
0.14048 	185281 	0.00591468 	155.722 	0 	0
0.14148 	185286 	0.00633607 	156.828 	0 	0
0.14248 	185292 	0.00678035 	157.934 	0 	0
0.143479 	185298 	0.00724785 	159.039 	0 	0
0.144479 	185305 	0.00773889 	160.145 	0 	0
0.145479 	185312 	0.00825377 	161.25 	0 	0
0.146479 	185319 	0.00879283 	162.356 	0 	0
0.147479 	185327 	0.0093564 	163.462 	0 	0
0.148479 	185336 	0.00994485 	164.568 	0 	0
0.149478 	185345 	0.0105586 	165.675 	0 	0
0.150478 	185355 	0.0111982 	166.781 	0 	0
0.151478 	185365 	0.011864 	167.888 	0 	0
0.152478 	185377 	0.0125568 	168.996 	0 	0
0.153478 	185389 	0.0132772 	170.103 	0 	0
0.154478 	185401 	0.0140258 	171.212 	0 	0
0.155477 	185415 	0.0148036 	172.32 	0 	0
0.156477 	185429 	0.0156113 	173.429 	0 	0
0.157477 	185444 	0.01645 	174.539 	0 	0
0.158477 	185460 	0.0173204 	175.648 	0 	0
0.159477 	185478 	0.0182238 	176.759 	0 	0
0.160477 	185496 	0.0191611 	177.869 	0 	0
0.161476 	185515 	0.0201336 	178.981 	0 	0
0.162476 	185535 	0.0211423 	180.092 	0 	0
0.163476 	185556 	0.0221885 	181.205 	0 	0
0.164476 	185579 	0.0232734 	182.317 	0 	0
0.165476 	185603 	0.0243984 	183.431 	0 	0
0.166476 	185628 	0.0255649 	184.545 	0 	0
0.167476 	185654 	0.0267742 	185.659 	0 	0
0.168475 	185682 	0.0280278 	186.774 	0 	0
0.169475 	185711 	0.0293272 	187.89 	0 	0
0.170475 	185742 	0.030674 	189.006 	0 	0
0.171475 	185774 	0.0320698 	190.123 	0 	0
0.172475 	185809 	0.0335165 	191.241 	0 	0
0.173475 	185844 	0.0350157 	192.359 	0 	0
0.174474 	185882 	0.0365694 	193.478 	0 	0
0.175474 	185922 	0.0381795 	194.598 	0 	0
0.176474 	185963 	0.0398482 	195.719 	0 	0
0.177474 	186007 	0.0415775 	196.84 	0 	0
0.178474 	186052 	0.0433698 	197.962 	0 	0
0.179474 	186100 	0.0452275 	199.085 	0 	0
0.180473 	186151 	0.047153 	200.209 	0 	0
0.181473 	186203 	0.0491489 	201.334 	0 	0
0.182473 	186259 	0.051218 	202.46 	0 	0
0.183473 	186316 	0.053363 	203.586 	0 	0
0.184473 	186377 	0.0555868 	204.714 	0 	0
0.185473 	186440 	0.0578925 	205.843 	0 	0
0.186473 	186507 	0.0602831 	206.973 	0 	0
0.187472 	186576 	0.0627619 	208.104 	0 	0
0.188472 	186649 	0.0653319 	209.236 	0 	0
0.189472 	186725 	0.0679966 	210.369 	0 	0
0.190472 	186805 	0.0707592 	211.504 	0 	0
0.191472 	186888 	0.0736231 	212.639 	0 	0
0.192472 	186975 	0.0765917 	213.777 	0 	0
0.193471 	187066 	0.0796683 	214.915 	0 	0
0.194471 	187162 	0.0828564 	216.055 	0 	0
0.195471 	187261 	0.0861591 	217.197 	0 	0
0.196471 	187365 	0.08958 	218.341 	0 	0
0.197471 	187474 	0.0931221 	219.487 	0 	0
0.198471 	187587 	0.0967888 	220.635 	0 	0
0.199471 	187706 	0.100583 	221.785 	0 	0
0.20047 	187830 	0.104508 	222.937 	0 	0
0.20147 	187960 	0.108568 	224.093 	0 	0
0.20247 	188095 	0.112764 	225.251 	0 	0
0.20347 	188237 	0.1171 	226.412 	0 	0
0.20447 	188384 	0.121578 	227.576 	0 	0
0.20547 	188539 	0.126203 	228.744 	0 	0
0.206469 	188700 	0.130976 	229.915 	0 	0
0.207469 	188868 	0.135901 	231.089 	0 	0
0.208469 	189044 	0.140981 	232.267 	0 	0
0.209469 	189227 	0.146219 	233.449 	0 	0
0.210469 	189418 	0.151618 	234.634 	0 	0
0.211469 	189617 	0.157182 	235.823 	0 	0
0.212468 	189824 	0.162913 	237.015 	0 	0
0.213468 	190040 	0.168816 	238.212 	0 	0
0.214468 	190265 	0.174893 	239.412 	0 	0
0.215468 	190499 	0.18115 	240.616 	0 	0
0.216468 	190743 	0.18759 	241.825 	0 	0
0.217468 	190996 	0.194218 	243.038 	0 	0
0.218468 	191260 	0.201037 	244.256 	0 	0
0.219467 	191534 	0.208053 	245.479 	0 	0
0.220467 	191820 	0.21527 	246.707 	0 	0
0.221467 	192117 	0.222692 	247.94 	0 	0
0.222467 	192425 	0.230326 	249.178 	0 	0
0.223467 	192746 	0.238176 	250.422 	0 	0
0.224467 	193079 	0.246247 	251.671 	0 	0
0.225466 	193426 	0.254545 	252.927 	0 	0
0.226466 	193786 	0.263074 	254.188 	0 	0
0.227466 	194160 	0.27184 	255.455 	0 	0
0.228466 	194548 	0.280848 	256.729 	0 	0
0.229466 	194952 	0.290104 	258.01 	0 	0
0.230466 	195371 	0.299612 	259.297 	0 	0
0.231466 	195806 	0.309377 	260.592 	0 	0
0.232465 	196257 	0.319405 	261.895 	0 	0
0.233465 	196725 	0.329701 	263.206 	0 	0
0.234465 	197211 	0.340269 	264.525 	0 	0
0.235465 	197715 	0.351113 	265.853 	0 	0
0.236465 	198237 	0.362239 	267.191 	0 	0
0.237465 	198779 	0.373651 	268.537 	0 	0
0.238464 	199341 	0.385352 	269.893 	0 	0
0.239464 	199923 	0.397348 	271.259 	0 	0
0.240464 	200526 	0.409643 	272.635 	0 	0
0.241464 	201151 	0.42224 	274.021 	0 	0
0.242464 	201799 	0.435143 	275.418 	0 	0
0.243464 	202470 	0.448355 	276.825 	0 	0
0.244464 	203165 	0.461881 	278.244 	0 	0
0.245463 	203884 	0.475724 	279.675 	0 	0
0.246463 	204629 	0.489887 	281.117 	0 	0
0.247463 	205400 	0.504373 	282.572 	0 	0
0.248463 	206199 	0.519186 	284.039 	0 	0
0.249463 	207026 	0.53433 	285.519 	0 	0
0.250463 	207881 	0.549806 	287.012 	0 	0
0.251462 	208767 	0.565619 	288.519 	0 	0
0.252462 	209683 	0.581772 	290.04 	0 	0
0.253462 	210631 	0.598266 	291.576 	0 	0
0.254462 	211611 	0.615105 	293.126 	0 	0
0.255462 	212624 	0.63229 	294.691 	0 	0
0.256462 	213671 	0.649824 	296.269 	0 	0
0.257462 	214752 	0.667708 	297.86 	0 	0
0.258461 	215867 	0.685943 	299.463 	0 	0
0.259461 	217016 	0.704528 	301.078 	0 	0
0.260461 	218200 	0.723464 	302.703 	0 	0
0.261461 	219421 	0.742754 	304.339 	0 	0
0.262461 	220679 	0.762401 	305.989 	0 	0
0.263461 	221978 	0.78241 	307.656 	0 	0
0.26446 	223321 	0.802789 	309.344 	0 	0
0.26546 	224710 	0.823545 	311.059 	0 	0
0.26646 	226149 	0.844686 	312.803 	0 	0
0.26746 	227640 	0.866219 	314.577 	0 	0
0.26846 	229183 	0.888147 	316.38 	0 	0
0.26946 	230777 	0.910469 	318.209 	0 	0
0.27046 	232422 	0.933182 	320.06 	0 	0
0.271459 	234115 	0.95628 	321.928 	0 	0
0.272459 	235857 	0.97976 	323.811 	0 	0
0.273459 	237647 	1.00362 	325.709 	0 	0
0.274459 	239487 	1.02787 	327.624 	0 	0
0.275459 	241380 	1.0525 	329.559 	0 	0
0.276459 	243330 	1.07752 	331.516 	0 	0
0.277458 	245338 	1.10294 	333.497 	0 	0
0.278458 	247409 	1.12875 	335.502 	0 	0
0.279458 	249543 	1.15495 	337.53 	0 	0
0.280458 	251739 	1.18153 	339.584 	0 	0
0.281458 	253997 	1.20849 	341.663 	0 	0
0.282458 	256319 	1.23581 	343.767 	0 	0
0.283457 	258709 	1.2635 	345.892 	0 	0
0.284457 	261170 	1.29158 	348.035 	0 	0
0.285457 	263702 	1.32004 	350.202 	0 	0
0.286457 	266302 	1.34886 	352.397 	0 	0
0.287457 	268974 	1.37806 	354.618 	0 	0
0.288457 	271726 	1.40767 	356.856 	0 	0
0.289457 	274561 	1.43769 	359.112 	0 	0
0.290456 	277468 	1.4681 	361.399 	0 	0
0.291456 	280437 	1.49884 	363.734 	0 	0
0.292456 	283486 	1.52997 	366.094 	0 	0
0.293456 	286646 	1.56162 	368.445 	0 	0
0.294456 	289922 	1.59381 	370.781 	0 	0
0.295456 	293250 	1.62627 	373.186 	0 	0
0.296455 	296609 	1.65891 	375.684 	0 	0
0.297455 	300053 	1.69194 	378.212 	0 	0
0.298455 	303736 	1.72598 	380.59 	0 	0
0.299455 	307511 	1.76043 	382.997 	0 	0
0.300455 	311240 	1.79472 	385.601 	0 	0
0.301455 	314775 	1.82823 	388.546 	0 	0
0.302455 	318818 	1.86385 	391.069 	0 	0
0.303454 	323294 	1.90129 	393.203 	0 	0
0.304454 	327877 	1.93936 	395.583 	0 	0
0.305454 	331002 	1.97113 	399.379 	0 	0
0.306454 	334260 	2.0034 	403.374 	0 	0
0.307454 	339793 	2.04543 	405.135 	0 	0
0.308454 	348024 	2.10028 	405.355 	0 	0
0.309453 	351145 	2.13165 	408.911 	0 	0
0.310453 	353054 	2.15745 	414.371 	0 	0
0.311453 	357750 	2.19729 	417.722 	0 	0
0.312453 	367974 	2.26011 	416.439 	0 	0
0.313453 	371736 	2.29187 	420.082 	0 	0
0.314453 	374242 	2.31888 	425.17 	0 	0
0.315453 	378935 	2.35747 	429.693 	0 	0
0.316452 	389208 	2.41972 	428.857 	0 	0
0.317452 	393632 	2.4542 	432.236 	0 	0
0.318452 	397376 	2.4861 	436.498 	0 	0
0.319452 	402223 	2.52454 	441.63 	0 	0
0.320452 	412238 	2.58538 	441.557 	0 	0
0.321452 	416868 	2.6207 	444.837 	0 	0
0.322451 	422461 	2.66109 	448.033 	0 	0
0.323451 	427111 	2.69882 	452.844 	0 	0
0.324451 	437145 	2.75999 	453.824 	0 	0
0.325451 	441492 	2.79492 	457.6 	0 	0
0.326451 	449042 	2.84434 	459.724 	0 	0
0.327451 	454285 	2.88282 	464.015 	0 	0
0.328451 	463424 	2.93895 	465.624 	0 	0
0.32945 	468504 	2.97657 	469.945 	0 	0
0.33045 	477152 	3.03055 	471.922 	0 	0
0.33145 	483639 	3.07411 	476.245 	0 	0
0.33245 	495399 	3.14422 	480.287 	0 	0
0.33345 	502161 	3.18506 	484.962 	0 	0
0.33445 	506607 	3.21757 	483.545 	0 	0
0.33545 	498068 	3.1894 	477.907 	0 	0
0.336449 	469994 	3.08549 	454.872 	0 	0
0.337449 	374938 	2.66931 	375.902 	0 	0
0.338449 	179867 	1.64985 	153.967 	0 	0
0.339449 	104223 	1.1942 	10.4036 	0 	0
0.340449 	100160 	1.16232 	0.397015 	0 	0
0.341449 	100006 	1.16105 	0.0149183 	0 	0
0.342448 	100000 	1.161 	0.000556288 	0 	0
0.343448 	100000 	1.161 	2.06553e-05 	0 	0
0.344448 	100000 	1.161 	7.65164e-07 	0 	0
0.345448 	100000 	1.161 	2.82891e-08 	0 	0
0.346448 	100000 	1.161 	1.04285e-09 	0 	0
0.347448 	100000 	1.161 	3.74578e-11 	0 	0
0.348448 	100000 	1.161 	1.1496e-12 	0 	0
0.349447 	100000 	1.161 	5.43245e-15 	0 	0
0.350447 	100000 	1.161 	-1.10467e-13 	0 	0
0.351447 	100000 	1.161 	-7.43119e-14 	0 	0
0.352447 	100000 	1.161 	-1.10202e-13 	0 	0
0.353447 	100000 	1.161 	-7.41228e-14 	0 	0
0.354447 	100000 	1.161 	-1.10092e-13 	0 	0
0.355446 	100000 	1.161 	-8.04161e-14 	0 	0
0.356446 	100000 	1.161 	1.69954e-14 	0 	0
0.357446 	100000 	1.161 	9.67887e-14 	0 	0
0.358446 	100000 	1.161 	6.08049e-14 	0 	0
0.359446 	100000 	1.161 	9.6765e-14 	0 	0
0.360446 	100000 	1.161 	6.0695e-14 	0 	0
0.361446 	100000 	1.161 	9.67124e-14 	0 	0
0.362445 	100000 	1.161 	2.96715e-14 	0 	0
0.363445 	100000 	1.161 	-4.0648e-14 	0 	0
0.364445 	100000 	1.161 	-1.73361e-14 	0 	0
0.365445 	100000 	1.161 	6.25978e-14 	0 	0
0.366445 	100000 	1.161 	1.17342e-13 	0 	0
0.367445 	100000 	1.161 	9.07741e-15 	0 	0
0.368444 	100000 	1.161 	4.51263e-14 	0 	0
0.369444 	100000 	1.161 	-4.94571e-14 	0 	0
0.370444 	100000 	1.161 	-2.02083e-13 	0 	0
0.371444 	100000 	1.161 	-2.9631e-13 	0 	0
0.372444 	100000 	1.161 	-2.05857e-13 	0 	0
0.373444 	100000 	1.161 	-6.97914e-14 	0 	0
0.374444 	100000 	1.161 	-7.44985e-16 	0 	0
0.375443 	100000 	1.161 	1.35434e-13 	0 	0
0.376443 	100000 	1.161 	2.25875e-13 	0 	0
0.377443 	100000 	1.161 	1.89703e-13 	0 	0
0.378443 	100000 	1.161 	2.61873e-13 	0 	0
0.379443 	100000 	1.161 	3.33872e-13 	0 	0
0.380443 	100000 	1.161 	2.53184e-13 	0 	0
0.381442 	100000 	1.161 	1.53279e-13 	0 	0
0.382442 	100000 	1.161 	-2.73067e-15 	0 	0
0.383442 	100000 	1.161 	-9.78177e-14 	0 	0
0.384442 	100000 	1.161 	-1.13172e-13 	0 	0
0.385442 	100000 	1.161 	-1.85349e-13 	0 	0
0.386442 	100000 	1.161 	-2.57486e-13 	0 	0
0.387442 	100000 	1.161 	-1.6281e-13 	0 	0
0.388441 	100000 	1.161 	-9.96549e-15 	0 	0
0.389441 	100000 	1.161 	8.42467e-14 	0 	0
0.390441 	100000 	1.161 	4.83225e-14 	0 	0
0.391441 	100000 	1.161 	1.20504e-13 	0 	0
0.392441 	100000 	1.161 	1.92634e-13 	0 	0
0.393441 	100000 	1.161 	1.58809e-13 	0 	0
0.39444 	100000 	1.161 	1.01322e-13 	0 	0
0.39544 	100000 	1.161 	1.37362e-13 	0 	0
0.39644 	100000 	1.161 	6.51838e-14 	0 	0
0.39744 	100000 	1.161 	-6.8275e-15 	0 	0
0.39844 	100000 	1.161 	2.92431e-14 	0 	0
0.39944 	100000 	1.161 	-6.78195e-15 	0 	0
0.40044 	100000 	1.161 	-1.31105e-15 	0 	0
0.401439 	100000 	1.161 	3.47264e-14 	0 	0
0.402439 	100000 	1.161 	-3.74415e-14 	0 	0
0.403439 	100000 	1.161 	-1.09411e-13 	0 	0
0.404439 	100000 	1.161 	-1.34422e-15 	0 	0
0.405439 	100000 	1.161 	-3.73389e-14 	0 	0
0.406439 	100000 	1.161 	5.03557e-14 	0 	0
0.407438 	100000 	1.161 	-4.43053e-14 	0 	0
0.408438 	100000 	1.161 	-1.96984e-13 	0 	0
0.409438 	100000 	1.161 	-2.91397e-13 	0 	0
0.410438 	100000 	1.161 	-2.24299e-13 	0 	0
0.411438 	100000 	1.161 	-1.53933e-13 	0 	0
0.412438 	100000 	1.161 	-1.89941e-13 	0 	0
0.413438 	100000 	1.161 	-9.61589e-14 	0 	0
0.414437 	100000 	1.161 	5.37711e-14 	0 	0
0.415437 	100000 	1.161 	1.4356e-13 	0 	0
0.416437 	100000 	1.161 	2.21219e-13 	0 	0
0.417437 	100000 	1.161 	1.85095e-13 	0 	0
0.418437 	100000 	1.161 	1.86737e-13 	0 	0
0.419437 	100000 	1.161 	1.17252e-13 	0 	0
0.420436 	100000 	1.161 	5.32298e-14 	0 	0
0.421436 	100000 	1.161 	-7.97058e-14 	0 	0
0.422436 	100000 	1.161 	-1.69114e-13 	0 	0
0.423436 	100000 	1.161 	-1.20853e-13 	0 	0
0.424436 	100000 	1.161 	3.10368e-14 	0 	0
0.425436 	100000 	1.161 	2.15986e-13 	0 	0
0.426436 	100000 	1.161 	3.17494e-13 	0 	0
0.427435 	100000 	1.161 	2.23936e-13 	0 	0
0.428435 	100000 	1.161 	7.54548e-14 	0 	0
0.429435 	100000 	1.161 	-1.07589e-13 	0 	0
0.430435 	100000 	1.161 	-2.0889e-13 	0 	0
0.431435 	100000 	1.161 	-1.36672e-13 	0 	0
0.432435 	100000 	1.161 	-6.47478e-14 	0 	0
0.433434 	100000 	1.161 	-1.00703e-13 	0 	0
0.434434 	100000 	1.161 	-6.24283e-15 	0 	0
0.435434 	100000 	1.161 	1.46349e-13 	0 	0
0.436434 	100000 	1.161 	2.40677e-13 	0 	0
0.437434 	100000 	1.161 	1.46013e-13 	0 	0
0.438434 	100000 	1.161 	-7.24404e-15 	0 	0
0.439434 	100000 	1.161 	-1.02541e-13 	0 	0
0.440433 	100000 	1.161 	-1.8188e-13 	0 	0
0.441433 	100000 	1.161 	-1.09753e-13 	0 	0
0.442433 	100000 	1.161 	-3.7711e-14 	0 	0
0.443433 	100000 	1.161 	-7.38593e-14 	0 	0
0.444433 	100000 	1.161 	-7.19892e-14 	0 	0
0.445433 	100000 	1.161 	-3.5817e-14 	0 	0
0.446433 	100000 	1.161 	-7.19665e-14 	0 	0
0.447432 	100000 	1.161 	1.92309e-16 	0 	0
0.448432 	100000 	1.161 	7.23039e-14 	0 	0
0.449432 	100000 	1.161 	3.04832e-14 	0 	0
0.450432 	100000 	1.161 	-8.52542e-14 	0 	0
0.451432 	100000 	1.161 	-1.70474e-13 	0 	0
0.452432 	100000 	1.161 	-7.53307e-14 	0 	0
0.453431 	100000 	1.161 	7.95748e-14 	0 	0
0.454431 	100000 	1.161 	1.77242e-13 	0 	0
0.455431 	100000 	1.161 	2.01971e-13 	0 	0
0.456431 	100000 	1.161 	1.07357e-13 	0 	0
0.457431 	100000 	1.161 	-4.55486e-14 	0 	0
0.458431 	100000 	1.161 	-1.39886e-13 	0 	0
0.459431 	100000 	1.161 	-6.34233e-14 	0 	0
0.46043 	100000 	1.161 	2.23335e-14 	0 	0
0.46143 	100000 	1.161 	4.62834e-14 	0 	0
0.46243 	100000 	1.161 	1.0242e-14 	0 	0
0.46343 	100000 	1.161 	4.62505e-14 	0 	0
0.46443 	100000 	1.161 	1.02348e-14 	0 	0
0.46543 	100000 	1.161 	4.62903e-14 	0 	0
0.466429 	100000 	1.161 	1.0152e-14 	0 	0
0.467429 	100000 	1.161 	8.23173e-14 	0 	0
0.468429 	100000 	1.161 	1.54346e-13 	0 	0
0.469429 	100000 	1.161 	6.42035e-14 	0 	0
0.470429 	100000 	1.161 	-7.05261e-14 	0 	0
0.471429 	100000 	1.161 	-1.37319e-13 	0 	0
0.472429 	100000 	1.161 	-7.42322e-14 	0 	0
0.473428 	100000 	1.161 	-2.70118e-14 	0 	0
0.474428 	100000 	1.161 	-6.31793e-14 	0 	0
0.475428 	100000 	1.161 	-2.69792e-14 	0 	0
0.476428 	100000 	1.161 	-6.3163e-14 	0 	0
0.477428 	100000 	1.161 	-3.76981e-14 	0 	0
0.478428 	100000 	1.161 	5.09138e-14 	0 	0
0.479427 	100000 	1.161 	1.28242e-13 	0 	0
0.480427 	100000 	1.161 	9.21516e-14 	0 	0
0.481427 	100000 	1.161 	1.28176e-13 	0 	0
0.482427 	100000 	1.161 	5.59785e-14 	0 	0
0.483427 	100000 	1.161 	-1.60747e-14 	0 	0
0.484427 	100000 	1.161 	5.39786e-14 	0 	0
0.485427 	100000 	1.161 	1.20361e-13 	0 	0
0.486426 	100000 	1.161 	6.87718e-14 	0 	0
0.487426 	100000 	1.161 	4.64586e-14 	0 	0
0.488426 	100000 	1.161 	8.2556e-14 	0 	0
0.489426 	100000 	1.161 	4.64722e-14 	0 	0
0.490426 	100000 	1.161 	8.25469e-14 	0 	0
0.491426 	100000 	1.161 	4.65044e-14 	0 	0
0.492425 	100000 	1.161 	8.24874e-14 	0 	0
0.493425 	100000 	1.161 	1.04228e-14 	0 	0
0.494425 	100000 	1.161 	-6.15632e-14 	0 	0
0.495425 	100000 	1.161 	2.67489e-15 	0 	0
0.496425 	100000 	1.161 	2.00943e-13 	0 	0
0.497425 	100000 	1.161 	4.85923e-13 	0 	0
0.498425 	100000 	1.161 	7.31582e-13 	0 	0
0.499424 	100000 	1.161 	8.45619e-13 	0 	0
