/*--------------------------------*- C++ -*----------------------------------*\
| =========                 |                                                 |
| \\      /  F ield         | OpenFOAM: The Open Source CFD Toolbox           |
|  \\    /   O peration     | Version:  2312                                  |
|   \\  /    A nd           | Website:  www.openfoam.com                      |
|    \\/     M anipulation  |                                                 |
\*---------------------------------------------------------------------------*/
FoamFile
{
    version     2.0;
    format      ascii;
    arch        "LSB;label=32;scalar=64";
    class       volScalarField;
    location    "0.00022";
    object      p;
}
// * * * * * * * * * * * * * * * * * * * * * * * * * * * * * * * * * * * * * //

dimensions      [1 -1 -2 0 0 0 0];

internalField   nonuniform List<scalar> 
500
(
166351
166375
166390
166400
166408
166414
166419
166424
166428
166431
166435
166438
166440
166443
166446
166448
166450
166453
166455
166457
166459
166461
166463
166465
166467
166469
166471
166473
166475
166477
166478
166480
166482
166484
166486
166488
166490
166492
166494
166496
166498
166500
166502
166504
166506
166508
166510
166512
166514
166517
166519
166521
166523
166526
166528
166531
166533
166536
166538
166541
166543
166546
166549
166552
166555
166558
166561
166564
166567
166570
166573
166576
166580
166583
166587
166590
166594
166598
166601
166605
166609
166613
166617
166622
166626
166630
166635
166640
166644
166649
166654
166659
166665
166670
166675
166681
166687
166692
166698
166705
166711
166717
166724
166731
166738
166745
166752
166760
166767
166775
166783
166791
166800
166809
166818
166827
166836
166846
166856
166866
166876
166887
166898
166910
166921
166933
166946
166958
166971
166985
166998
167012
167027
167042
167057
167073
167089
167106
167123
167141
167159
167178
167197
167217
167238
167259
167280
167303
167326
167350
167374
167399
167425
167452
167479
167508
167537
167567
167598
167631
167664
167698
167733
167769
167807
167845
167885
167926
167969
168013
168058
168105
168153
168202
168254
168307
168361
168418
168476
168537
168599
168663
168729
168798
168869
168942
169017
169095
169176
169259
169345
169434
169526
169621
169719
169821
169925
170034
170145
170261
170380
170504
170632
170763
170900
171040
171186
171336
171492
171653
171819
171990
172168
172351
172540
172736
172938
173147
173363
173586
173817
174055
174301
174555
174818
175089
175370
175659
175958
176267
176586
176916
177256
177608
177971
178345
178732
179132
179544
179970
180409
180862
181330
181813
182312
182826
183357
183904
184469
185052
185653
186273
186912
187571
188251
188952
189674
190419
191187
191979
192794
193635
194501
195393
196313
197260
198236
199241
200276
201341
202439
203569
204732
205929
207162
208430
209735
211078
212460
213882
215344
216849
218396
219986
221622
223304
225033
226810
228636
230513
232441
234423
236458
238549
240697
242902
245166
247491
249877
252326
254840
257420
260066
262781
265566
268422
271351
274354
277432
280587
283821
287134
290529
294007
297569
301216
304952
308775
312690
316696
320795
324989
329279
333668
338155
342744
347434
352228
357127
362132
367244
372463
377790
383224
388763
394402
400132
405943
411814
417711
423579
429330
434816
439803
443908
446509
446617
442686
432400
412566
379499
330669
268215
202453
149223
118269
105548
101519
100398
100102
100024
100004
99999.3
99998
99997.7
99997.6
99997.6
99997.6
99997.6
99997.6
99997.6
99997.6
99997.6
99997.6
99997.6
99997.6
99997.6
99997.6
99997.6
99997.6
99997.6
99997.6
99997.6
99997.6
99997.6
99997.6
99997.6
99997.6
99997.6
99997.6
99997.6
99997.6
99997.6
99997.6
99997.6
99997.6
99997.6
99997.6
99997.6
99997.6
99997.6
99997.6
99997.6
99997.6
99997.6
99997.6
99997.6
99997.6
99997.6
99997.6
99997.6
99997.6
99997.6
99997.6
99997.6
99997.6
99997.6
99997.6
99997.6
99997.6
99997.6
99997.6
99997.6
99997.6
99997.6
99997.6
99997.6
99997.6
99997.6
99997.6
99997.6
99997.6
99997.6
99997.6
99997.6
99997.6
99997.6
99997.6
99997.6
99997.6
99997.6
99997.6
99997.6
99997.6
99997.6
99997.6
99997.6
99997.6
99997.6
99997.6
99997.6
99997.6
99997.6
99997.6
99997.6
99997.6
99997.6
99997.6
99997.6
99997.6
99997.6
99997.6
99997.6
99997.6
99997.6
99997.6
99997.6
99997.6
99997.6
99997.6
99997.6
99997.6
99997.6
99997.6
99997.6
99997.6
99997.6
99997.6
99997.6
99997.6
99997.6
99997.6
99997.6
99997.6
99997.6
99997.6
99997.6
99997.6
99997.6
99997.6
99997.6
99997.6
99997.6
99997.6
99997.6
99997.6
99997.6
99997.6
99997.6
99997.6
)
;

boundaryField
{
    wedge0
    {
        type            wedge;
    }
    wedge1
    {
        type            wedge;
    }
    wedge2
    {
        type            wedge;
    }
    wedge3
    {
        type            wedge;
    }
    outlet
    {
        type            zeroGradient;
    }
    defaultFaces
    {
        type            empty;
    }
}


// ************************************************************************* //
