/*--------------------------------*- C++ -*----------------------------------*\
| =========                 |                                                 |
| \\      /  F ield         | OpenFOAM: The Open Source CFD Toolbox           |
|  \\    /   O peration     | Version:  2312                                  |
|   \\  /    A nd           | Website:  www.openfoam.com                      |
|    \\/     M anipulation  |                                                 |
\*---------------------------------------------------------------------------*/
FoamFile
{
    version     2.0;
    format      ascii;
    arch        "LSB;label=32;scalar=64";
    class       volScalarField;
    location    "0.00022";
    object      rho;
}
// * * * * * * * * * * * * * * * * * * * * * * * * * * * * * * * * * * * * * //

dimensions      [1 -3 0 0 0 0 0];

internalField   nonuniform List<scalar> 
500
(
0.00431586
0.00431709
0.00431893
0.00432146
0.00432473
0.00432875
0.00433354
0.00433911
0.00434546
0.00435259
0.00436052
0.00436925
0.00437877
0.00438911
0.00440026
0.00441223
0.00442503
0.00443866
0.00445313
0.00446844
0.00448462
0.00450166
0.00451957
0.00453837
0.00455806
0.00457865
0.00460016
0.00462259
0.00464596
0.00467029
0.00469557
0.00472183
0.00474908
0.00477734
0.00480662
0.00483694
0.00486831
0.00490075
0.00493427
0.00496891
0.00500467
0.00504157
0.00507964
0.0051189
0.00515936
0.00520106
0.00524401
0.00528825
0.00533379
0.00538065
0.00542888
0.00547849
0.00552952
0.00558199
0.00563593
0.00569138
0.00574837
0.00580694
0.00586711
0.00592892
0.00599242
0.00605763
0.0061246
0.00619338
0.00626399
0.00633649
0.00641093
0.00648734
0.00656577
0.00664628
0.00672891
0.00681372
0.00690076
0.0069901
0.00708177
0.00717586
0.00727241
0.00737149
0.00747317
0.00757751
0.00768458
0.00779446
0.00790722
0.00802294
0.00814169
0.00826356
0.00838863
0.00851699
0.00864873
0.00878394
0.00892272
0.00906516
0.00921136
0.00936144
0.0095155
0.00967365
0.00983601
0.0100027
0.0101738
0.0103495
0.01053
0.0107152
0.0109055
0.0111008
0.0113015
0.0115076
0.0117193
0.0119367
0.01216
0.0123895
0.0126252
0.0128674
0.0131162
0.0133719
0.0136347
0.0139047
0.0141822
0.0144674
0.0147606
0.015062
0.0153718
0.0156903
0.0160178
0.0163544
0.0167007
0.0170567
0.0174228
0.0177993
0.0181866
0.018585
0.0189947
0.0194162
0.0198499
0.020296
0.0207551
0.0212274
0.0217135
0.0222137
0.0227284
0.0232582
0.0238035
0.0243648
0.0249425
0.0255373
0.0261495
0.0267799
0.0274289
0.0280971
0.0287851
0.0294936
0.0302231
0.0309744
0.0317481
0.032545
0.0333656
0.0342109
0.0350815
0.0359782
0.0369019
0.0378533
0.0388334
0.0398431
0.0408831
0.0419546
0.0430584
0.0441955
0.045367
0.0465739
0.0478172
0.0490982
0.0504179
0.0517776
0.0531783
0.0546214
0.0561082
0.0576398
0.0592177
0.0608433
0.0625179
0.064243
0.0660201
0.0678506
0.0697362
0.0716785
0.073679
0.0757395
0.0778616
0.0800471
0.0822979
0.0846156
0.0870022
0.0894597
0.0919899
0.0945949
0.0972766
0.100037
0.102879
0.105804
0.108814
0.111912
0.115099
0.118379
0.121754
0.125225
0.128796
0.132469
0.136247
0.140131
0.144126
0.148232
0.152454
0.156794
0.161254
0.165837
0.170547
0.175386
0.180357
0.185463
0.190707
0.196092
0.201621
0.207298
0.213124
0.219104
0.225241
0.231537
0.237997
0.244622
0.251417
0.258385
0.265529
0.272853
0.280359
0.288051
0.295932
0.304007
0.312277
0.320748
0.329421
0.3383
0.34739
0.356692
0.366211
0.37595
0.385912
0.396102
0.406521
0.417174
0.428063
0.439193
0.450567
0.462187
0.474058
0.486182
0.498563
0.511204
0.524108
0.537279
0.550719
0.564432
0.578421
0.592689
0.607239
0.622074
0.637198
0.652612
0.668321
0.684327
0.700632
0.717241
0.734155
0.751377
0.76891
0.786758
0.804921
0.823404
0.842208
0.861337
0.880792
0.900576
0.920692
0.941142
0.961928
0.983053
1.00452
1.02633
1.04848
1.07098
1.09383
1.11703
1.14058
1.16449
1.18876
1.21338
1.23836
1.26371
1.28942
1.31549
1.34193
1.36874
1.39591
1.42346
1.45138
1.47967
1.50833
1.53737
1.56678
1.59657
1.62674
1.65729
1.68821
1.71952
1.7512
1.78327
1.81572
1.84856
1.88178
1.91538
1.94937
1.98375
2.01851
2.05366
2.0892
2.12513
2.16146
2.19817
2.23528
2.27277
2.31067
2.34895
2.38763
2.42669
2.46614
2.50596
2.54615
2.58666
2.62746
2.66849
2.70965
2.75077
2.79157
2.83163
2.87024
2.90625
2.93783
2.96198
2.97393
2.9662
2.92749
2.84191
2.69021
2.45651
2.14425
1.79591
1.4905
1.29395
1.20415
1.17328
1.16429
1.16186
1.16122
1.16106
1.16101
1.161
1.161
1.161
1.161
1.161
1.161
1.161
1.161
1.161
1.161
1.161
1.161
1.161
1.161
1.161
1.161
1.161
1.161
1.161
1.161
1.161
1.161
1.161
1.161
1.161
1.161
1.161
1.161
1.161
1.161
1.161
1.161
1.161
1.161
1.161
1.161
1.161
1.161
1.161
1.161
1.161
1.161
1.161
1.161
1.161
1.161
1.161
1.161
1.161
1.161
1.161
1.161
1.161
1.161
1.161
1.161
1.161
1.161
1.161
1.161
1.161
1.161
1.161
1.161
1.161
1.161
1.161
1.161
1.161
1.161
1.161
1.161
1.161
1.161
1.161
1.161
1.161
1.161
1.161
1.161
1.161
1.161
1.161
1.161
1.161
1.161
1.161
1.161
1.161
1.161
1.161
1.161
1.161
1.161
1.161
1.161
1.161
1.161
1.161
1.161
1.161
1.161
1.161
1.161
1.161
1.161
1.161
1.161
1.161
1.161
1.161
1.161
1.161
1.161
1.161
1.161
1.161
1.161
1.161
1.161
1.161
1.161
1.161
1.161
1.161
1.161
1.161
1.161
1.161
1.161
1.161
1.161
1.161
1.161
1.161
1.161
1.161
)
;

boundaryField
{
    wedge0
    {
        type            wedge;
    }
    wedge1
    {
        type            wedge;
    }
    wedge2
    {
        type            wedge;
    }
    wedge3
    {
        type            wedge;
    }
    outlet
    {
        type            zeroGradient;
    }
    defaultFaces
    {
        type            empty;
    }
}


// ************************************************************************* //
