/*--------------------------------*- C++ -*----------------------------------*\
| =========                 |                                                 |
| \\      /  F ield         | OpenFOAM: The Open Source CFD Toolbox           |
|  \\    /   O peration     | Version:  2312                                  |
|   \\  /    A nd           | Website:  www.openfoam.com                      |
|    \\/     M anipulation  |                                                 |
\*---------------------------------------------------------------------------*/
FoamFile
{
    version     2.0;
    format      ascii;
    arch        "LSB;label=32;scalar=64";
    class       volScalarField;
    location    "0.00022";
    object      T;
}
// * * * * * * * * * * * * * * * * * * * * * * * * * * * * * * * * * * * * * //

dimensions      [0 0 0 1 0 0 0];

internalField   nonuniform List<scalar> 
500
(
134252
134233
134188
134118
134023
133903
133759
133591
133399
133184
132944
132681
132395
132085
131752
131397
131019
130618
130195
129751
129284
128797
128288
127758
127207
126637
126046
125436
124806
124158
123490
122805
122102
121381
120643
119888
119117
118330
117527
116709
115877
115030
114169
113295
112408
111508
110596
109673
108738
107792
106836
105870
104894
103910
102917
101916
100907
99890.5
98867.6
97838.3
96803.2
95762.6
94717
93666.8
92612.5
91554.4
90493.1
89428.9
88362.2
87293.5
86223.2
85151.6
84079.3
83006.5
81933.6
80861.1
79789.3
78718.6
77649.4
76581.9
75516.7
74453.9
73394
72337.3
71284
70234.6
69189.3
68148.5
67112.3
66081.2
65055.4
64035.1
63020.7
62012.4
61010.4
60014.9
59026.3
58044.7
57070.4
56103.6
55144.4
54193
53249.7
52314.7
51388
50469.9
49560.4
48659.9
47768.3
46885.9
46012.8
45149
44294.7
43449.9
42614.9
41789.6
40974.2
40168.7
39373.2
38587.8
37812.4
37047.2
36292.3
35547.5
34813.1
34088.9
33375
32671.4
31978.2
31295.3
30622.7
29960.4
29308.4
28666.7
28035.3
27414
26803
26202.1
25611.3
25030.5
24459.8
23899
23348.2
22807.1
22275.8
21754.2
21242.3
20739.9
20246.9
19763.4
19289.1
18824.1
18368.2
17921.3
17483.4
17054.3
16634
16222.4
15819.2
15424.6
15038.2
14660.2
14290.2
13928.3
13574.3
13228
12889.5
12558.6
12235.1
11919
11610.1
11308.4
11013.7
10725.9
10444.9
10170.5
9902.73
9641.39
9386.39
9137.6
8894.93
8658.24
8427.45
8202.42
7983.06
7769.24
7560.87
7357.83
7160.02
6967.32
6779.64
6596.87
6418.9
6245.63
6076.96
5912.79
5753.02
5597.55
5446.28
5299.12
5155.98
5016.76
4881.36
4749.71
4621.7
4497.26
4376.29
4258.72
4144.45
4033.4
3925.5
3820.67
3718.82
3619.89
3523.79
3430.45
3339.81
3251.79
3166.31
3083.32
3002.75
2924.53
2848.6
2774.89
2703.36
2633.92
2566.54
2501.15
2437.69
2376.12
2316.38
2258.41
2202.18
2147.62
2094.69
2043.35
1993.55
1945.24
1898.38
1852.94
1808.86
1766.11
1724.66
1684.46
1645.47
1607.67
1571.01
1535.46
1501
1467.58
1435.18
1403.77
1373.31
1343.79
1315.17
1287.42
1260.53
1234.46
1209.18
1184.69
1160.95
1137.94
1115.64
1094.04
1073.1
1052.8
1033.14
1014.09
995.638
977.759
960.439
943.663
927.414
911.677
896.437
881.681
867.393
853.561
840.172
827.214
814.672
802.537
790.797
779.44
768.456
757.835
747.566
737.639
728.046
718.777
709.823
701.176
692.828
684.77
676.995
669.495
662.263
655.292
648.575
642.106
635.877
629.884
624.119
618.577
613.253
608.141
603.235
598.53
594.021
589.704
585.573
581.624
577.852
574.253
570.823
567.557
564.451
561.502
558.706
556.058
553.555
551.193
548.969
546.88
544.921
543.091
541.384
539.799
538.332
536.979
535.738
534.605
533.577
532.65
531.821
531.084
530.433
529.862
529.36
528.915
528.506
528.102
527.658
527.096
526.296
525.064
523.08
519.827
514.463
505.646
491.347
468.854
435.684
392.65
348.712
318.359
305.305
301.377
300.351
300.09
300.023
300.006
300.001
300
300
300
300
300
300
300
300
300
300
300
300
300
300
300
300
300
300
300
300
300
300
300
300
300
300
300
300
300
300
300
300
300
300
300
300
300
300
300
300
300
300
300
300
300
300
300
300
300
300
300
300
300
300
300
300
300
300
300
300
300
300
300
300
300
300
300
300
300
300
300
300
300
300
300
300
300
300
300
300
300
300
300
300
300
300
300
300
300
300
300
300
300
300
300
300
300
300
300
300
300
300
300
300
300
300
300
300
300
300
300
300
300
300
300
300
300
300
300
300
300
300
300
300
300
300
300
300
300
300
300
300
300
300
300
300
300
)
;

boundaryField
{
    wedge0
    {
        type            wedge;
    }
    wedge1
    {
        type            wedge;
    }
    wedge2
    {
        type            wedge;
    }
    wedge3
    {
        type            wedge;
    }
    outlet
    {
        type            zeroGradient;
    }
    defaultFaces
    {
        type            empty;
    }
}


// ************************************************************************* //
