/*--------------------------------*- C++ -*----------------------------------*\
| =========                 |                                                 |
| \\      /  F ield         | OpenFOAM: The Open Source CFD Toolbox           |
|  \\    /   O peration     | Version:  2312                                  |
|   \\  /    A nd           | Website:  www.openfoam.com                      |
|    \\/     M anipulation  |                                                 |
\*---------------------------------------------------------------------------*/
FoamFile
{
    version     2.0;
    format      ascii;
    arch        "LSB;label=32;scalar=64";
    class       volScalarField;
    location    "0.00022";
    object      thermo:e;
}
// * * * * * * * * * * * * * * * * * * * * * * * * * * * * * * * * * * * * * //

dimensions      [0 2 -2 0 0 0 0];

internalField   nonuniform List<scalar> 
500
(
9.63527e+07
9.63393e+07
9.6307e+07
9.62564e+07
9.61882e+07
9.61023e+07
9.59991e+07
9.58785e+07
9.57407e+07
9.55859e+07
9.5414e+07
9.52252e+07
9.50196e+07
9.47974e+07
9.45586e+07
9.43035e+07
9.40321e+07
9.37446e+07
9.34412e+07
9.31221e+07
9.27874e+07
9.24373e+07
9.2072e+07
9.16918e+07
9.12967e+07
9.08872e+07
9.04633e+07
9.00253e+07
8.95734e+07
8.9108e+07
8.86291e+07
8.81372e+07
8.76324e+07
8.7115e+07
8.65854e+07
8.60437e+07
8.54902e+07
8.49254e+07
8.43493e+07
8.37624e+07
8.31649e+07
8.25571e+07
8.19393e+07
8.1312e+07
8.06752e+07
8.00294e+07
7.93749e+07
7.8712e+07
7.8041e+07
7.73623e+07
7.66761e+07
7.59828e+07
7.52827e+07
7.45761e+07
7.38633e+07
7.31448e+07
7.24207e+07
7.16914e+07
7.09573e+07
7.02186e+07
6.94756e+07
6.87288e+07
6.79784e+07
6.72247e+07
6.6468e+07
6.57086e+07
6.49469e+07
6.41831e+07
6.34175e+07
6.26505e+07
6.18824e+07
6.11133e+07
6.03437e+07
5.95737e+07
5.88038e+07
5.8034e+07
5.72648e+07
5.64964e+07
5.5729e+07
5.49629e+07
5.41983e+07
5.34356e+07
5.26749e+07
5.19164e+07
5.11605e+07
5.04074e+07
4.96572e+07
4.89101e+07
4.81665e+07
4.74265e+07
4.66903e+07
4.5958e+07
4.523e+07
4.45063e+07
4.37871e+07
4.30727e+07
4.23632e+07
4.16587e+07
4.09594e+07
4.02655e+07
3.95771e+07
3.88943e+07
3.82173e+07
3.75462e+07
3.68812e+07
3.62222e+07
3.55695e+07
3.49232e+07
3.42833e+07
3.365e+07
3.30234e+07
3.24034e+07
3.17903e+07
3.1184e+07
3.05847e+07
2.99924e+07
2.94072e+07
2.88291e+07
2.82581e+07
2.76944e+07
2.7138e+07
2.65888e+07
2.6047e+07
2.55125e+07
2.49853e+07
2.44656e+07
2.39532e+07
2.34483e+07
2.29507e+07
2.24606e+07
2.19779e+07
2.15026e+07
2.10347e+07
2.05741e+07
2.01209e+07
1.9675e+07
1.92365e+07
1.88052e+07
1.83812e+07
1.79644e+07
1.75548e+07
1.71523e+07
1.6757e+07
1.63687e+07
1.59874e+07
1.5613e+07
1.52456e+07
1.4885e+07
1.45312e+07
1.41842e+07
1.38438e+07
1.351e+07
1.31828e+07
1.28621e+07
1.25478e+07
1.22399e+07
1.19382e+07
1.16428e+07
1.13535e+07
1.10702e+07
1.07929e+07
1.05216e+07
1.02561e+07
9.99632e+06
9.74224e+06
9.49377e+06
9.25081e+06
9.0133e+06
8.78115e+06
8.55428e+06
8.3326e+06
8.11605e+06
7.90453e+06
7.69797e+06
7.49628e+06
7.29938e+06
7.10719e+06
6.91963e+06
6.73661e+06
6.55806e+06
6.38389e+06
6.21402e+06
6.04838e+06
5.88688e+06
5.72944e+06
5.57599e+06
5.42644e+06
5.28072e+06
5.13875e+06
5.00045e+06
4.86575e+06
4.73457e+06
4.60684e+06
4.48249e+06
4.36143e+06
4.24361e+06
4.12894e+06
4.01736e+06
3.9088e+06
3.80318e+06
3.70045e+06
3.60053e+06
3.50335e+06
3.40887e+06
3.317e+06
3.22768e+06
3.14087e+06
3.05648e+06
2.97447e+06
2.89477e+06
2.81733e+06
2.7421e+06
2.669e+06
2.59799e+06
2.52902e+06
2.46204e+06
2.39698e+06
2.33381e+06
2.27246e+06
2.2129e+06
2.15507e+06
2.09894e+06
2.04444e+06
1.99154e+06
1.9402e+06
1.89037e+06
1.84201e+06
1.79507e+06
1.74953e+06
1.70534e+06
1.66246e+06
1.62086e+06
1.5805e+06
1.54134e+06
1.50336e+06
1.46651e+06
1.43077e+06
1.3961e+06
1.36247e+06
1.32985e+06
1.29822e+06
1.26754e+06
1.23779e+06
1.20893e+06
1.18095e+06
1.15382e+06
1.12751e+06
1.102e+06
1.07727e+06
1.05328e+06
1.03003e+06
1.00748e+06
985627
964438
943896
923983
904680
885969
867832
850253
833215
816702
800698
785190
770161
755598
741487
727815
714570
701738
689307
677267
665605
654310
643373
632782
622528
612601
602992
593691
584690
575981
567555
559404
551521
543898
536528
529404
522519
515866
509440
503234
497243
491459
485879
480496
475306
470303
465482
460839
456369
452068
447930
443953
440132
436463
432942
429565
426329
423231
420266
417432
414725
412142
409680
407336
405107
402990
400983
399083
397286
395591
393995
392496
391090
389776
388551
387414
386361
385390
384499
383686
382948
382283
381688
381159
380692
380282
379922
379602
379309
379019
378700
378297
377723
376838
375415
373080
369230
362902
352640
336497
312691
281805
250270
228486
219118
216298
215562
215375
215327
215314
215311
215310
215310
215310
215310
215310
215310
215310
215310
215310
215310
215310
215310
215310
215310
215310
215310
215310
215310
215310
215310
215310
215310
215310
215310
215310
215310
215310
215310
215310
215310
215310
215310
215310
215310
215310
215310
215310
215310
215310
215310
215310
215310
215310
215310
215310
215310
215310
215310
215310
215310
215310
215310
215310
215310
215310
215310
215310
215310
215310
215310
215310
215310
215310
215310
215310
215310
215310
215310
215310
215310
215310
215310
215310
215310
215310
215310
215310
215310
215310
215310
215310
215310
215310
215310
215310
215310
215310
215310
215310
215310
215310
215310
215310
215310
215310
215310
215310
215310
215310
215310
215310
215310
215310
215310
215310
215310
215310
215310
215310
215310
215310
215310
215310
215310
215310
215310
215310
215310
215310
215310
215310
215310
215310
215310
215310
215310
215310
215310
215310
215310
215310
215310
215310
215310
215310
215310
215310
)
;

boundaryField
{
    wedge0
    {
        type            wedge;
    }
    wedge1
    {
        type            wedge;
    }
    wedge2
    {
        type            wedge;
    }
    wedge3
    {
        type            wedge;
    }
    outlet
    {
        type            zeroGradient;
    }
    defaultFaces
    {
        type            empty;
    }
}


// ************************************************************************* //
