/*--------------------------------*- C++ -*----------------------------------*\
| =========                 |                                                 |
| \\      /  F ield         | OpenFOAM: The Open Source CFD Toolbox           |
|  \\    /   O peration     | Version:  2312                                  |
|   \\  /    A nd           | Website:  www.openfoam.com                      |
|    \\/     M anipulation  |                                                 |
\*---------------------------------------------------------------------------*/
FoamFile
{
    version     2.0;
    format      ascii;
    arch        "LSB;label=32;scalar=64";
    class       volVectorField;
    location    "0.00022";
    object      U;
}
// * * * * * * * * * * * * * * * * * * * * * * * * * * * * * * * * * * * * * //

dimensions      [0 1 -1 0 0 0 0];

internalField   nonuniform List<vector> 
500
(
(0.954224 -3.36079e-10 3.36169e-10)
(1.71801 -3.25199e-10 3.25305e-10)
(2.56992 -3.33806e-10 3.33789e-10)
(3.47476 -3.33264e-10 3.35383e-10)
(4.40072 -3.17716e-10 3.19556e-10)
(5.33689 -3.18636e-10 3.1918e-10)
(6.27873 -3.14272e-10 3.14285e-10)
(7.22404 -3.08306e-10 3.08298e-10)
(8.17161 -2.95447e-10 2.9541e-10)
(9.12076 -2.786e-10 2.7858e-10)
(10.071 -2.63325e-10 2.6331e-10)
(11.0222 -2.51418e-10 2.50202e-10)
(11.9739 -2.39039e-10 2.38261e-10)
(12.9262 -2.26478e-10 2.25957e-10)
(13.8789 -2.13848e-10 2.13108e-10)
(14.8319 -2.01612e-10 2.01552e-10)
(15.7852 -1.90281e-10 1.90291e-10)
(16.7387 -1.83906e-10 1.83907e-10)
(17.6924 -1.78477e-10 1.78472e-10)
(18.6463 -1.76566e-10 1.76566e-10)
(19.6003 -1.74262e-10 1.7424e-10)
(20.5545 -1.72248e-10 1.72243e-10)
(21.5088 -1.6974e-10 1.69748e-10)
(22.4631 -1.68612e-10 1.68628e-10)
(23.4176 -1.65442e-10 1.65445e-10)
(24.3721 -1.61466e-10 1.6146e-10)
(25.3268 -1.58014e-10 1.58e-10)
(26.2814 -1.5474e-10 1.54731e-10)
(27.2362 -1.49098e-10 1.49099e-10)
(28.191 -1.44467e-10 1.44462e-10)
(29.1459 -1.39524e-10 1.39535e-10)
(30.1008 -1.35563e-10 1.35573e-10)
(31.0558 -1.29892e-10 1.29901e-10)
(32.0108 -1.23969e-10 1.2397e-10)
(32.9659 -1.18358e-10 1.18359e-10)
(33.921 -1.13575e-10 1.13575e-10)
(34.8761 -1.08566e-10 1.08566e-10)
(35.8313 -1.04038e-10 1.04038e-10)
(36.7866 -9.93169e-11 9.93169e-11)
(37.7418 -9.52353e-11 9.52353e-11)
(38.6971 -9.01367e-11 9.01367e-11)
(39.6525 -8.41272e-11 8.41272e-11)
(40.6079 -7.80569e-11 7.80569e-11)
(41.5633 -7.25603e-11 7.25603e-11)
(42.5187 -6.66612e-11 6.66612e-11)
(43.4742 -6.15717e-11 6.15717e-11)
(44.4298 -5.6108e-11 5.6108e-11)
(45.3853 -5.03602e-11 5.03602e-11)
(46.3409 -4.43004e-11 4.43004e-11)
(47.2965 -3.90433e-11 3.90433e-11)
(48.2522 -3.43919e-11 3.43919e-11)
(49.2079 -2.94406e-11 2.94406e-11)
(50.1636 -2.50084e-11 2.50084e-11)
(51.1194 -2.06995e-11 2.06995e-11)
(52.0752 -1.68434e-11 1.68434e-11)
(53.0311 -1.27227e-11 1.27227e-11)
(53.9869 -9.13401e-12 9.13401e-12)
(54.9429 -5.86658e-12 5.86658e-12)
(55.8988 -3.08103e-12 3.08103e-12)
(56.8548 -2.18134e-13 2.18134e-13)
(57.8108 1.53917e-12 -1.53917e-12)
(58.7669 2.96066e-12 -2.96066e-12)
(59.723 4.1173e-12 -4.1173e-12)
(60.6792 4.94503e-12 -4.94503e-12)
(61.6354 5.45524e-12 -5.45524e-12)
(62.5916 5.68001e-12 -5.68001e-12)
(63.5479 6.08987e-12 -6.08987e-12)
(64.5042 6.75719e-12 -6.75719e-12)
(65.4606 6.65151e-12 -6.65151e-12)
(66.417 6.48434e-12 -6.48434e-12)
(67.3734 6.31722e-12 -6.31722e-12)
(68.3299 6.07731e-12 -6.07731e-12)
(69.2865 5.8893e-12 -5.8893e-12)
(70.2431 5.75037e-12 -5.75037e-12)
(71.1997 5.67426e-12 -5.67433e-12)
(72.1565 5.69532e-12 -5.69422e-12)
(73.1132 5.52748e-12 -5.52556e-12)
(74.07 5.20048e-12 -5.19889e-12)
(75.0269 4.99193e-12 -4.9893e-12)
(75.9838 4.70889e-12 -4.6947e-12)
(76.9408 4.33449e-12 -4.24473e-12)
(77.8978 3.8028e-12 -3.63723e-12)
(78.8549 3.1316e-12 -2.9693e-12)
(79.8121 2.01433e-12 -1.8539e-12)
(80.7693 7.68644e-13 -6.10927e-13)
(81.7266 -6.0114e-13 7.53396e-13)
(82.684 -1.53117e-12 1.67848e-12)
(83.6414 -2.43914e-12 2.55579e-12)
(84.5989 -3.07103e-12 3.15655e-12)
(85.5564 -3.48787e-12 3.51991e-12)
(86.5141 -3.68809e-12 3.6363e-12)
(87.4718 -3.64523e-12 3.51153e-12)
(88.4296 -3.57753e-12 3.5381e-12)
(89.3874 -3.36522e-12 3.34317e-12)
(90.3454 -2.93513e-12 2.93101e-12)
(91.3034 -2.41776e-12 2.3159e-12)
(92.2615 -2.09142e-12 1.87147e-12)
(93.2197 -1.6351e-12 1.6324e-12)
(94.178 -1.19794e-12 1.21346e-12)
(95.1364 -7.60079e-13 7.97343e-13)
(96.0949 -5.13056e-13 5.72349e-13)
(97.0535 -3.51942e-13 4.28152e-13)
(98.0122 -9.66948e-14 1.10065e-13)
(98.9709 2.30257e-13 -2.44028e-13)
(99.9298 7.21847e-13 -7.6271e-13)
(100.889 1.3734e-12 -1.4055e-12)
(101.848 1.86846e-12 -1.89392e-12)
(102.807 2.51846e-12 -2.53599e-12)
(103.766 3.02348e-12 -3.03343e-12)
(104.726 3.48817e-12 -3.49534e-12)
(105.686 3.81898e-12 -3.82263e-12)
(106.645 4.02097e-12 -4.02078e-12)
(107.605 3.98454e-12 -3.98411e-12)
(108.565 3.94982e-12 -3.95019e-12)
(109.525 4.03002e-12 -4.03016e-12)
(110.485 3.99575e-12 -3.99606e-12)
(111.446 3.84828e-12 -3.84833e-12)
(112.406 3.76736e-12 -3.76757e-12)
(113.367 3.76639e-12 -3.76662e-12)
(114.328 3.66263e-12 -3.66319e-12)
(115.289 3.88668e-12 -3.88759e-12)
(116.25 4.01738e-12 -4.01813e-12)
(117.212 3.85253e-12 -3.85224e-12)
(118.173 3.59431e-12 -3.59326e-12)
(119.135 3.30961e-12 -3.30911e-12)
(120.097 3.05173e-12 -3.05151e-12)
(121.059 2.70485e-12 -2.70438e-12)
(122.021 2.2684e-12 -2.26772e-12)
(122.984 1.76995e-12 -1.76965e-12)
(123.947 1.27366e-12 -1.27324e-12)
(124.91 8.40778e-13 -8.40186e-13)
(125.873 4.70236e-13 -4.69581e-13)
(126.836 1.6324e-13 -1.62514e-13)
(127.8 -7.64775e-14 7.72058e-14)
(128.764 -3.16091e-13 3.16813e-13)
(129.728 -3.44359e-13 3.44713e-13)
(130.692 -1.61656e-13 1.6165e-13)
(131.657 -1.80836e-13 1.80837e-13)
(132.622 -1.89983e-13 1.89983e-13)
(133.587 -1.89421e-13 1.89421e-13)
(134.553 -1.88105e-13 1.88105e-13)
(135.519 -1.86541e-13 1.86541e-13)
(136.485 -2.1438e-13 2.1438e-13)
(137.452 -1.84129e-13 1.84129e-13)
(138.418 -1.82943e-13 1.82943e-13)
(139.386 -1.62268e-13 1.62268e-13)
(140.353 -1.96425e-13 1.96425e-13)
(141.321 -1.8036e-13 1.8036e-13)
(142.29 -1.36772e-13 1.36759e-13)
(143.258 -4.02105e-14 4.03716e-14)
(144.227 -8.91487e-14 8.94787e-14)
(145.197 -1.70013e-13 1.7033e-13)
(146.167 -1.1295e-13 1.13254e-13)
(147.137 -7.65576e-14 7.66677e-14)
(148.108 -1.74017e-13 1.73943e-13)
(149.08 -1.71917e-13 1.7184e-13)
(150.052 -1.74338e-13 1.74199e-13)
(151.024 -2.19926e-13 2.19848e-13)
(151.997 -1.46451e-13 1.46385e-13)
(152.97 -1.89355e-13 1.89296e-13)
(153.944 -1.96448e-13 1.96323e-13)
(154.919 -1.6697e-13 1.66781e-13)
(155.894 -1.28146e-13 1.28204e-13)
(156.87 -1.96024e-13 1.96136e-13)
(157.847 -1.63882e-13 1.63961e-13)
(158.824 -1.63126e-13 1.6318e-13)
(159.802 -1.53269e-13 1.533e-13)
(160.78 -1.10334e-13 1.1033e-13)
(161.759 -1.60914e-13 1.60914e-13)
(162.739 -2.39182e-13 2.39091e-13)
(163.72 -3.4828e-13 3.48149e-13)
(164.702 -5.31455e-13 5.31196e-13)
(165.684 -6.78562e-13 6.78188e-13)
(166.668 -7.8914e-13 7.88773e-13)
(167.652 -8.61624e-13 8.61403e-13)
(168.637 -8.93486e-13 8.93313e-13)
(169.623 -8.8148e-13 8.81405e-13)
(170.61 -8.2231e-13 8.22223e-13)
(171.598 -7.10443e-13 7.10464e-13)
(172.587 -5.25025e-13 5.24905e-13)
(173.578 -3.6728e-13 3.66927e-13)
(174.569 -2.60376e-13 2.60218e-13)
(175.562 -1.87101e-13 1.87019e-13)
(176.555 -1.49811e-13 1.49898e-13)
(177.55 -1.49383e-13 1.49403e-13)
(178.547 -1.31917e-13 1.3184e-13)
(179.544 -7.02668e-14 7.02068e-14)
(180.543 -3.78807e-14 3.76164e-14)
(181.544 0 0)
(182.546 2.58568e-14 -2.58568e-14)
(183.549 6.66598e-14 -6.66598e-14)
(184.554 7.76726e-14 -7.76726e-14)
(185.561 5.43783e-14 -5.43783e-14)
(186.569 2.717e-14 -2.717e-14)
(187.579 3.06121e-14 -3.06121e-14)
(188.591 0 0)
(189.605 -3.29217e-14 3.29134e-14)
(190.621 -3.98494e-14 3.98989e-14)
(191.638 -1.62631e-14 1.63601e-14)
(192.658 4.44233e-14 -4.4211e-14)
(193.68 8.86823e-14 -8.83912e-14)
(194.704 1.14146e-13 -1.13768e-13)
(195.731 1.27452e-13 -1.27106e-13)
(196.759 1.16582e-13 -1.16271e-13)
(197.791 7.82923e-14 -7.79828e-14)
(198.824 5.88915e-14 -5.85834e-14)
(199.861 6.25222e-14 -6.22249e-14)
(200.9 4.09755e-14 -4.07222e-14)
(201.942 4.02911e-14 -4.00602e-14)
(202.986 1.40383e-14 -1.38239e-14)
(204.034 -3.56281e-15 3.80747e-15)
(205.085 -1.93014e-14 1.95267e-14)
(206.139 -6.47237e-14 6.48579e-14)
(207.196 -1.02432e-13 1.02507e-13)
(208.257 -1.48216e-13 1.48327e-13)
(209.321 -1.89632e-13 1.89695e-13)
(210.388 -1.81738e-13 1.81814e-13)
(211.46 -1.52147e-13 1.522e-13)
(212.535 -1.29091e-13 1.29138e-13)
(213.615 -1.16024e-13 1.16029e-13)
(214.698 -1.10707e-13 1.1071e-13)
(215.786 -1.05415e-13 1.05396e-13)
(216.878 -1.00681e-13 1.00668e-13)
(217.975 -8.68059e-14 8.68059e-14)
(219.076 -5.25091e-14 5.25091e-14)
(220.182 -6.04384e-14 6.04384e-14)
(221.293 -7.24896e-14 7.24896e-14)
(222.41 -1.10022e-13 1.10022e-13)
(223.531 -1.14684e-13 1.14684e-13)
(224.658 -1.418e-13 1.418e-13)
(225.791 -1.71858e-13 1.71858e-13)
(226.929 -1.71004e-13 1.71004e-13)
(228.074 -1.76217e-13 1.76217e-13)
(229.224 -1.72258e-13 1.72258e-13)
(230.381 -1.8029e-13 1.8029e-13)
(231.545 -1.81832e-13 1.81832e-13)
(232.715 -1.73542e-13 1.73542e-13)
(233.892 -1.77787e-13 1.77787e-13)
(235.077 -1.74563e-13 1.74563e-13)
(236.269 -1.75967e-13 1.75967e-13)
(237.468 -1.9786e-13 1.9786e-13)
(238.675 -1.99391e-13 1.99391e-13)
(239.89 -1.93851e-13 1.93851e-13)
(241.114 -1.48787e-13 1.48787e-13)
(242.345 -1.15988e-13 1.15988e-13)
(243.586 -1.02357e-13 1.02357e-13)
(244.836 -1.21184e-13 1.21184e-13)
(246.094 -1.19844e-13 1.19844e-13)
(247.363 -1.08643e-13 1.08643e-13)
(248.641 -1.29772e-13 1.29772e-13)
(249.929 -1.36253e-13 1.36253e-13)
(251.227 -1.4107e-13 1.4107e-13)
(252.536 -1.43346e-13 1.43346e-13)
(253.855 -1.41203e-13 1.41203e-13)
(255.186 -1.30687e-13 1.30687e-13)
(256.528 -1.23507e-13 1.23507e-13)
(257.881 -1.25559e-13 1.25559e-13)
(259.247 -1.32288e-13 1.32288e-13)
(260.625 -1.1816e-13 1.1816e-13)
(262.015 -1.04832e-13 1.04832e-13)
(263.418 -9.21569e-14 9.21569e-14)
(264.834 -7.98658e-14 7.98658e-14)
(266.264 -6.74031e-14 6.74031e-14)
(267.707 -5.2974e-14 5.2974e-14)
(269.165 -3.35557e-14 3.35557e-14)
(270.637 -2.18218e-14 2.18218e-14)
(272.123 -5.97452e-15 5.97452e-15)
(273.625 7.37462e-16 -7.37462e-16)
(275.141 6.96647e-15 -6.96647e-15)
(276.674 1.26033e-14 -1.26033e-14)
(278.222 1.74546e-14 -1.74546e-14)
(279.787 2.09482e-14 -2.09482e-14)
(281.368 2.15022e-14 -2.15022e-14)
(282.966 1.49136e-14 -1.49136e-14)
(284.581 7.83217e-15 -7.83217e-15)
(286.214 -1.40166e-15 1.40166e-15)
(287.865 -8.18573e-15 8.18573e-15)
(289.533 -9.34192e-15 9.34192e-15)
(291.221 -3.58032e-15 3.58032e-15)
(292.927 0 5.75066e-34)
(294.652 0 8.80007e-35)
(296.396 1.16108e-15 -1.16108e-15)
(298.16 7.63796e-15 -7.63796e-15)
(299.945 1.08104e-14 -1.08104e-14)
(301.749 4.34181e-15 -4.34181e-15)
(303.574 1.08382e-15 -1.08382e-15)
(305.419 0 7.78326e-35)
(307.286 0 0)
(309.174 -9.35643e-15 9.35643e-15)
(311.083 -1.27432e-14 1.27432e-14)
(313.015 -9.22182e-15 9.22182e-15)
(314.968 -1.20435e-15 1.20435e-15)
(316.943 -7.80243e-15 7.80243e-15)
(318.941 -5.02625e-15 5.02625e-15)
(320.962 -9.3945e-16 9.3945e-16)
(323.005 7.32786e-15 -7.32786e-15)
(325.072 -1.78339e-15 1.78339e-15)
(327.161 0 5.43645e-35)
(329.274 0 0)
(331.41 0 5.04986e-35)
(333.57 -8.45949e-15 8.45949e-15)
(335.753 -1.38322e-16 1.38322e-16)
(337.96 -9.05938e-15 9.05938e-15)
(340.192 -5.04282e-15 5.04282e-15)
(342.447 3.77147e-15 -3.77147e-15)
(344.726 5.65968e-16 -5.65968e-16)
(347.029 0 3.92255e-35)
(349.356 0 0)
(351.706 -9.57342e-15 9.57342e-15)
(354.081 -1.68967e-14 1.68967e-14)
(356.48 -1.32793e-14 1.32793e-14)
(358.903 -9.87123e-15 9.87123e-15)
(361.349 -6.69563e-15 6.69563e-15)
(363.82 -3.83279e-15 3.83279e-15)
(366.314 3.09301e-15 -3.09301e-15)
(368.831 5.51855e-16 -5.51855e-16)
(371.372 -4.83101e-16 4.83101e-16)
(373.936 -2.54099e-16 2.54099e-16)
(376.523 -2.66964e-15 2.66964e-15)
(379.134 -9.60774e-15 9.60774e-15)
(381.766 -1.59519e-14 1.59519e-14)
(384.422 -2.02198e-14 2.02198e-14)
(387.099 -1.82368e-14 1.82368e-14)
(389.799 -2.34798e-14 2.34798e-14)
(392.52 -2.67517e-14 2.67517e-14)
(395.263 -2.63039e-14 2.63039e-14)
(398.027 -2.37873e-14 2.37873e-14)
(400.811 -2.06952e-14 2.06952e-14)
(403.615 -1.69327e-14 1.69327e-14)
(406.439 -1.89274e-14 1.89274e-14)
(409.281 -1.4999e-14 1.4999e-14)
(412.141 -1.13639e-14 1.13639e-14)
(415.016 -8.1888e-15 8.1888e-15)
(417.905 -1.10453e-14 1.10453e-14)
(420.804 -1.34706e-14 1.34706e-14)
(423.709 -1.01632e-14 1.01632e-14)
(426.615 -7.0554e-15 7.0554e-15)
(429.51 -4.79239e-15 4.79239e-15)
(432.376 -3.64753e-15 3.64753e-15)
(435.189 -2.47564e-15 2.47564e-15)
(437.907 -2.07249e-15 2.07249e-15)
(440.467 -4.44582e-15 4.44582e-15)
(442.766 -3.88009e-15 3.88009e-15)
(444.64 -2.24738e-15 2.24738e-15)
(445.825 9.33418e-17 -9.33418e-17)
(445.891 2.15976e-16 -2.15976e-16)
(444.147 2.44342e-15 -2.44342e-15)
(439.476 9.53272e-16 -9.53272e-16)
(430.097 -1.36959e-15 1.36959e-15)
(413.249 -2.21687e-15 2.21687e-15)
(384.907 -5.42136e-15 5.42136e-15)
(340.005 -8.08937e-15 8.08937e-15)
(274.395 -4.30527e-15 4.30527e-15)
(190.421 -2.59165e-15 2.59165e-15)
(104.576 -3.77995e-16 3.77995e-16)
(42.7255 1.43728e-15 -1.43728e-15)
(13.5531 0 0)
(3.76351 -4.15711e-15 4.15711e-15)
(0.994876 -4.92662e-15 4.92662e-15)
(0.258395 -2.12816e-15 2.12816e-15)
(0.0665449 -2.80188e-15 2.80188e-15)
(0.0170348 0 0)
(0.00433759 0 0)
(0.00109885 -1.71208e-15 1.71208e-15)
(0.000276979 -1.24722e-18 1.24722e-18)
(6.947e-05 -1.69351e-15 1.69351e-15)
(1.73385e-05 0 0)
(4.30633e-06 1.67422e-15 -1.67422e-15)
(1.0644e-06 0 0)
(2.61825e-07 0 0)
(6.40932e-08 -7.97245e-16 7.97245e-16)
(1.56074e-08 -4.87834e-15 4.87834e-15)
(3.77215e-09 -5.66711e-15 5.66711e-15)
(8.93312e-10 -9.70046e-15 9.70046e-15)
(1.93239e-10 -1.04783e-14 1.04783e-14)
(2.01095e-11 -8.04029e-15 8.04029e-15)
(-1.98328e-11 -2.41559e-15 2.41559e-15)
(-1.93723e-11 0 0)
(-1.42731e-12 0 0)
(1.17642e-11 1.56957e-15 -1.56957e-15)
(-3.08276e-13 2.71733e-18 -2.71733e-18)
(-1.84677e-11 1.55306e-15 -1.55306e-15)
(-2.21445e-11 0 0)
(-1.34363e-11 0 0)
(-1.15448e-11 -1.52917e-15 1.52917e-15)
(-2.86548e-11 0 0)
(-3.49521e-11 0 0)
(-1.88376e-11 0 0)
(-9.67217e-13 2.99507e-15 -2.99507e-15)
(2.08882e-12 2.98753e-15 -2.98753e-15)
(4.00998e-12 8.73602e-18 -8.73602e-18)
(1.7675e-11 0 0)
(1.25066e-11 0 0)
(-2.62364e-12 1.46028e-15 -1.46028e-15)
(-6.97385e-12 0 0)
(4.50231e-12 0 0)
(2.40074e-11 0 0)
(3.36271e-11 0 0)
(2.69512e-11 0 0)
(1.88864e-11 0 0)
(1.63339e-11 0 0)
(1.47998e-11 0 0)
(2.85993e-11 5.96127e-16 -5.96127e-16)
(4.46114e-11 3.97407e-15 -3.97407e-15)
(3.57232e-11 1.01014e-14 -1.01014e-14)
(2.01295e-11 1.34449e-14 -1.34449e-14)
(1.32698e-11 1.40275e-14 -1.40275e-14)
(4.8983e-12 6.41929e-15 -6.41929e-15)
(-3.48487e-12 1.56298e-15 -1.56298e-15)
(-1.05353e-11 -5.67562e-16 5.67562e-16)
(-1.11773e-11 0 0)
(9.02237e-14 0 0)
(5.78173e-12 0 0)
(3.63118e-12 0 0)
(1.33044e-11 0 0)
(1.87836e-11 0 0)
(1.1907e-11 0 0)
(-3.27666e-12 0 0)
(-1.16474e-12 -8.60714e-16 8.60714e-16)
(2.24185e-11 8.55217e-16 -8.55217e-16)
(3.84772e-11 0 0)
(4.3028e-11 0 0)
(2.22093e-11 -1.26877e-15 1.26877e-15)
(1.35316e-11 -4.35249e-18 4.35249e-18)
(1.18312e-11 -1.25753e-15 1.25753e-15)
(-3.02123e-12 -4.07145e-18 4.07145e-18)
(-1.53248e-11 -1.24492e-15 1.24492e-15)
(-2.13203e-11 0 0)
(-1.3579e-11 -8.20711e-16 8.20711e-16)
(-1.00938e-11 8.16222e-16 -8.16222e-16)
(-9.77947e-12 0 0)
(-3.04551e-11 1.21611e-15 -1.21611e-15)
(-3.45714e-11 4.99876e-19 -4.99876e-19)
(-1.947e-11 1.20262e-15 -1.20262e-15)
(4.74952e-13 0 0)
(2.08298e-11 7.97403e-16 -7.97403e-16)
(3.24592e-11 -7.87411e-16 7.87411e-16)
(2.73221e-11 0 0)
(5.02699e-12 -9.22231e-16 9.22231e-16)
(-5.00387e-12 -4.1856e-15 4.1856e-15)
(-4.1943e-12 -9.76725e-15 9.76725e-15)
(-2.767e-12 -8.35236e-15 8.35236e-15)
(-1.44528e-11 0 0)
(-3.09278e-11 8.27221e-15 -8.27221e-15)
(-1.89524e-11 9.62855e-15 -9.62855e-15)
(-4.62651e-12 4.13094e-15 -4.13094e-15)
(-8.3324e-12 9.27119e-16 -9.27119e-16)
(1.65451e-11 0 0)
(4.6345e-11 9.54766e-16 -9.54766e-16)
(4.95716e-11 4.14426e-15 -4.14426e-15)
(2.79165e-11 6.24716e-16 -6.24716e-16)
(2.49835e-11 -1.86578e-15 1.86578e-15)
(3.29397e-11 -6.55787e-15 6.55787e-15)
(2.27764e-11 -4.62021e-15 4.62021e-15)
(1.92244e-11 -4.88407e-15 4.88407e-15)
(1.31483e-11 -7.32921e-15 7.32921e-15)
(7.26208e-12 -1.19373e-14 1.19373e-14)
(5.96731e-12 -1.86892e-14 1.86892e-14)
(4.21129e-12 -2.74258e-14 2.74258e-14)
(-1.08383e-11 -2.99199e-14 2.99199e-14)
(-2.22211e-11 -2.93411e-14 2.93411e-14)
(-2.32541e-11 -2.64659e-14 2.64659e-14)
(-3.1334e-11 -1.73069e-14 1.73069e-14)
(-2.77861e-11 -9.80134e-15 9.80134e-15)
(-1.55807e-11 -4.42715e-15 4.42715e-15)
(-1.19302e-11 -1.16634e-15 1.16634e-15)
(3.67782e-12 0 0)
(2.74572e-11 0 0)
(1.5278e-11 0 0)
(-2.64851e-12 0 0)
(-9.62211e-12 0 0)
(-4.57398e-13 6.73757e-16 -6.73757e-16)
(1.10146e-11 3.28774e-15 -3.28774e-15)
(-8.55557e-12 -1.70447e-16 1.70447e-16)
(-3.07118e-11 -5.62362e-15 5.62362e-15)
(-2.91301e-11 -5.04451e-15 5.04451e-15)
(-8.73308e-12 -6.46142e-15 6.46142e-15)
(5.25575e-12 -1.91121e-15 1.91121e-15)
(4.88212e-12 6.41744e-16 -6.41744e-16)
(-8.67496e-12 3.70601e-15 -3.70601e-15)
(-2.92313e-11 8.70948e-16 -8.70948e-16)
(-3.0506e-11 0 0)
(-1.44747e-11 0 0)
(-2.01859e-11 -3.55736e-16 3.55736e-16)
(-2.42285e-11 -2.63909e-15 2.63909e-15)
(-4.15149e-12 -6.83272e-15 6.83272e-15)
(1.63067e-11 -5.26862e-15 5.26862e-15)
(2.58675e-11 -9.42753e-15 9.42753e-15)
(7.91894e-12 -1.54674e-14 1.54674e-14)
(-1.86757e-11 -2.3307e-14 2.3307e-14)
(-2.53965e-11 -2.55437e-14 2.55437e-14)
(-2.14659e-11 -2.36988e-14 2.36988e-14)
(-8.47911e-12 -1.6258e-14 1.6258e-14)
(1.00324e-11 -1.06812e-14 1.06812e-14)
(2.33588e-11 -6.97901e-15 6.97901e-15)
(3.77537e-11 -5.13632e-15 5.13632e-15)
(4.2212e-11 -5.13813e-15 5.13813e-15)
(3.50726e-11 -6.96889e-15 6.96889e-15)
(2.33224e-11 -3.32505e-15 3.32505e-15)
(1.44215e-11 -1.50961e-15 1.50961e-15)
)
;

boundaryField
{
    wedge0
    {
        type            wedge;
    }
    wedge1
    {
        type            wedge;
    }
    wedge2
    {
        type            wedge;
    }
    wedge3
    {
        type            wedge;
    }
    outlet
    {
        type            zeroGradient;
    }
    defaultFaces
    {
        type            empty;
    }
}


// ************************************************************************* //
