/*--------------------------------*- C++ -*----------------------------------*\
| =========                 |                                                 |
| \\      /  F ield         | OpenFOAM: The Open Source CFD Toolbox           |
|  \\    /   O peration     | Version:  2312                                  |
|   \\  /    A nd           | Website:  www.openfoam.com                      |
|    \\/     M anipulation  |                                                 |
\*---------------------------------------------------------------------------*/
FoamFile
{
    version     2.0;
    format      ascii;
    arch        "LSB;label=32;scalar=64";
    class       volScalarField;
    location    "2e-05";
    object      p;
}
// * * * * * * * * * * * * * * * * * * * * * * * * * * * * * * * * * * * * * //

dimensions      [1 -1 -2 0 0 0 0];

internalField   nonuniform List<scalar> 
500
(
2.16908e+06
2.171e+06
2.17219e+06
2.17301e+06
2.17364e+06
2.17415e+06
2.1746e+06
2.17499e+06
2.17535e+06
2.17568e+06
2.17599e+06
2.17629e+06
2.17658e+06
2.17686e+06
2.17714e+06
2.17742e+06
2.17769e+06
2.17796e+06
2.17824e+06
2.17851e+06
2.1788e+06
2.17908e+06
2.17937e+06
2.17967e+06
2.17998e+06
2.18029e+06
2.18061e+06
2.18094e+06
2.18129e+06
2.18164e+06
2.18201e+06
2.18239e+06
2.18278e+06
2.18319e+06
2.18361e+06
2.18405e+06
2.18451e+06
2.18499e+06
2.18549e+06
2.18601e+06
2.18655e+06
2.18712e+06
2.18771e+06
2.18833e+06
2.18898e+06
2.18967e+06
2.19038e+06
2.19113e+06
2.19192e+06
2.19275e+06
2.19362e+06
2.19454e+06
2.1955e+06
2.19652e+06
2.19759e+06
2.19872e+06
2.19991e+06
2.20117e+06
2.20251e+06
2.20391e+06
2.2054e+06
2.20698e+06
2.20865e+06
2.21042e+06
2.2123e+06
2.21429e+06
2.21641e+06
2.21866e+06
2.22105e+06
2.22359e+06
2.2263e+06
2.22918e+06
2.23226e+06
2.23554e+06
2.23904e+06
2.24278e+06
2.24678e+06
2.25105e+06
2.25562e+06
2.26052e+06
2.26577e+06
2.27139e+06
2.27743e+06
2.28391e+06
2.29087e+06
2.29836e+06
2.30641e+06
2.31508e+06
2.32442e+06
2.33449e+06
2.34535e+06
2.35709e+06
2.36977e+06
2.38349e+06
2.39833e+06
2.41442e+06
2.43187e+06
2.45081e+06
2.47139e+06
2.49378e+06
2.51817e+06
2.54475e+06
2.57378e+06
2.6055e+06
2.64024e+06
2.67833e+06
2.72015e+06
2.76617e+06
2.8169e+06
2.87294e+06
2.93497e+06
3.0038e+06
3.08036e+06
3.16573e+06
3.26114e+06
3.36798e+06
3.48774e+06
3.62141e+06
3.77007e+06
3.93504e+06
4.11639e+06
4.31232e+06
4.51755e+06
4.72045e+06
4.89862e+06
5.01229e+06
4.99666e+06
4.7574e+06
4.18365e+06
3.20675e+06
1.93381e+06
791218
219991
107547
100299
100009
99998
99997.6
99997.6
99997.6
99997.6
99997.6
99997.6
99997.6
99997.6
99997.6
99997.6
99997.6
99997.6
99997.6
99997.6
99997.6
99997.6
99997.6
99997.6
99997.6
99997.6
99997.6
99997.6
99997.6
99997.6
99997.6
99997.6
99997.6
99997.6
99997.6
99997.6
99997.6
99997.6
99997.6
99997.6
99997.6
99997.6
99997.6
99997.6
99997.6
99997.6
99997.6
99997.6
99997.6
99997.6
99997.6
99997.6
99997.6
99997.6
99997.6
99997.6
99997.6
99997.6
99997.6
99997.6
99997.6
99997.6
99997.6
99997.6
99997.6
99997.6
99997.6
99997.6
99997.6
99997.6
99997.6
99997.6
99997.6
99997.6
99997.6
99997.6
99997.6
99997.6
99997.6
99997.6
99997.6
99997.6
99997.6
99997.6
99997.6
99997.6
99997.6
99997.6
99997.6
99997.6
99997.6
99997.6
99997.6
99997.6
99997.6
99997.6
99997.6
99997.6
99997.6
99997.6
99997.6
99997.6
99997.6
99997.6
99997.6
99997.6
99997.6
99997.6
99997.6
99997.6
99997.6
99997.6
99997.6
99997.6
99997.6
99997.6
99997.6
99997.6
99997.6
99997.6
99997.6
99997.6
99997.6
99997.6
99997.6
99997.6
99997.6
99997.6
99997.6
99997.6
99997.6
99997.6
99997.6
99997.6
99997.6
99997.6
99997.6
99997.6
99997.6
99997.6
99997.6
99997.6
99997.6
99997.6
99997.6
99997.6
99997.6
99997.6
99997.6
99997.6
99997.6
99997.6
99997.6
99997.6
99997.6
99997.6
99997.6
99997.6
99997.6
99997.6
99997.6
99997.6
99997.6
99997.6
99997.6
99997.6
99997.6
99997.6
99997.6
99997.6
99997.6
99997.6
99997.6
99997.6
99997.6
99997.6
99997.6
99997.6
99997.6
99997.6
99997.6
99997.6
99997.6
99997.6
99997.6
99997.6
99997.6
99997.6
99997.6
99997.6
99997.6
99997.6
99997.6
99997.6
99997.6
99997.6
99997.6
99997.6
99997.6
99997.6
99997.6
99997.6
99997.6
99997.6
99997.6
99997.6
99997.6
99997.6
99997.6
99997.6
99997.6
99997.6
99997.6
99997.6
99997.6
99997.6
99997.6
99997.6
99997.6
99997.6
99997.6
99997.6
99997.6
99997.6
99997.6
99997.6
99997.6
99997.6
99997.6
99997.6
99997.6
99997.6
99997.6
99997.6
99997.6
99997.6
99997.6
99997.6
99997.6
99997.6
99997.6
99997.6
99997.6
99997.6
99997.6
99997.6
99997.6
99997.6
99997.6
99997.6
99997.6
99997.6
99997.6
99997.6
99997.6
99997.6
99997.6
99997.6
99997.6
99997.6
99997.6
99997.6
99997.6
99997.6
99997.6
99997.6
99997.6
99997.6
99997.6
99997.6
99997.6
99997.6
99997.6
99997.6
99997.6
99997.6
99997.6
99997.6
99997.6
99997.6
99997.6
99997.6
99997.6
99997.6
99997.6
99997.6
99997.6
99997.6
99997.6
99997.6
99997.6
99997.6
99997.6
99997.6
99997.6
99997.6
99997.6
99997.6
99997.6
99997.6
99997.6
99997.6
99997.6
99997.6
99997.6
99997.6
99997.6
99997.6
99997.6
99997.6
99997.6
99997.6
99997.6
99997.6
99997.6
99997.6
99997.6
99997.6
99997.6
99997.6
99997.6
99997.6
99997.6
99997.6
99997.6
99997.6
99997.6
99997.6
99997.6
99997.6
99997.6
99997.6
99997.6
99997.6
99997.6
99997.6
99997.6
99997.6
99997.6
99997.6
99997.6
99997.6
99997.6
99997.6
99997.6
99997.6
99997.6
99997.6
99997.6
99997.6
99997.6
99997.6
99997.6
99997.6
99997.6
99997.6
99997.6
99997.6
99997.6
99997.6
99997.6
99997.6
99997.6
99997.6
99997.6
99997.6
99997.6
99997.6
99997.6
)
;

boundaryField
{
    wedge0
    {
        type            wedge;
    }
    wedge1
    {
        type            wedge;
    }
    wedge2
    {
        type            wedge;
    }
    wedge3
    {
        type            wedge;
    }
    outlet
    {
        type            zeroGradient;
    }
    defaultFaces
    {
        type            empty;
    }
}


// ************************************************************************* //
