/*--------------------------------*- C++ -*----------------------------------*\
| =========                 |                                                 |
| \\      /  F ield         | OpenFOAM: The Open Source CFD Toolbox           |
|  \\    /   O peration     | Version:  2312                                  |
|   \\  /    A nd           | Website:  www.openfoam.com                      |
|    \\/     M anipulation  |                                                 |
\*---------------------------------------------------------------------------*/
FoamFile
{
    version     2.0;
    format      ascii;
    arch        "LSB;label=32;scalar=64";
    class       volScalarField;
    location    "2e-05";
    object      T;
}
// * * * * * * * * * * * * * * * * * * * * * * * * * * * * * * * * * * * * * //

dimensions      [0 0 0 1 0 0 0];

internalField   nonuniform List<scalar> 
500
(
754576
754172
753101
751402
749099
746204
742730
738686
734086
728940
723264
717070
710374
703192
695542
687442
678910
669967
660632
650927
640872
630491
619804
608835
597606
586140
574460
562590
550550
538366
526058
513649
501161
488614
476031
463431
450834
438259
425725
413249
400849
388542
376342
364265
352324
340533
328905
317450
306180
295104
284232
273572
263131
252916
242933
233186
223681
214421
205408
196646
188135
179877
171872
164120
156619
149369
142368
135614
129103
122834
116801
111003
105434
100090
94966
90057.9
85360.3
80867.9
76575.3
72476.9
68567.1
64840.2
61290.4
57911.7
54698.5
51644.8
48744.9
45992.8
43382.9
40909.5
38566.9
36349.7
34252.4
32269.7
30396.4
28627.4
26957.8
25382.7
23897.7
22498
21179.4
19937.7
18768.8
17668.8
16634
15660.8
14745.8
13885.7
13077.3
12317.8
11604.2
10933.8
10304.1
9712.61
9156.99
8634.92
8144.18
7688.33
7270.44
6882.45
6518.83
6175.26
5847.55
5530.95
5219.25
4903.73
4571.22
4200.7
3756.81
3179.03
2379.71
1373.21
544.338
314.112
300.398
300.012
300
300
300
300
300
300
300
300
300
300
300
300
300
300
300
300
300
300
300
300
300
300
300
300
300
300
300
300
300
300
300
300
300
300
300
300
300
300
300
300
300
300
300
300
300
300
300
300
300
300
300
300
300
300
300
300
300
300
300
300
300
300
300
300
300
300
300
300
300
300
300
300
300
300
300
300
300
300
300
300
300
300
300
300
300
300
300
300
300
300
300
300
300
300
300
300
300
300
300
300
300
300
300
300
300
300
300
300
300
300
300
300
300
300
300
300
300
300
300
300
300
300
300
300
300
300
300
300
300
300
300
300
300
300
300
300
300
300
300
300
300
300
300
300
300
300
300
300
300
300
300
300
300
300
300
300
300
300
300
300
300
300
300
300
300
300
300
300
300
300
300
300
300
300
300
300
300
300
300
300
300
300
300
300
300
300
300
300
300
300
300
300
300
300
300
300
300
300
300
300
300
300
300
300
300
300
300
300
300
300
300
300
300
300
300
300
300
300
300
300
300
300
300
300
300
300
300
300
300
300
300
300
300
300
300
300
300
300
300
300
300
300
300
300
300
300
300
300
300
300
300
300
300
300
300
300
300
300
300
300
300
300
300
300
300
300
300
300
300
300
300
300
300
300
300
300
300
300
300
300
300
300
300
300
300
300
300
300
300
300
300
300
300
300
300
300
300
300
300
300
300
300
300
300
300
300
300
300
300
300
300
300
300
300
300
300
300
300
300
300
300
300
300
300
300
300
300
300
300
300
300
300
300
300
300
300
300
300
300
300
300
300
300
300
300
300
300
300
300
300
300
300
300
300
300
300
300
300
300
300
300
300
300
300
)
;

boundaryField
{
    wedge0
    {
        type            wedge;
    }
    wedge1
    {
        type            wedge;
    }
    wedge2
    {
        type            wedge;
    }
    wedge3
    {
        type            wedge;
    }
    outlet
    {
        type            zeroGradient;
    }
    defaultFaces
    {
        type            empty;
    }
}


// ************************************************************************* //
