/*--------------------------------*- C++ -*----------------------------------*\
| =========                 |                                                 |
| \\      /  F ield         | OpenFOAM: The Open Source CFD Toolbox           |
|  \\    /   O peration     | Version:  2312                                  |
|   \\  /    A nd           | Website:  www.openfoam.com                      |
|    \\/     M anipulation  |                                                 |
\*---------------------------------------------------------------------------*/
FoamFile
{
    version     2.0;
    format      ascii;
    arch        "LSB;label=32;scalar=64";
    class       volScalarField;
    location    "2e-05";
    object      thermo:e;
}
// * * * * * * * * * * * * * * * * * * * * * * * * * * * * * * * * * * * * * //

dimensions      [0 2 -2 0 0 0 0];

internalField   nonuniform List<scalar> 
500
(
5.41559e+08
5.41269e+08
5.40501e+08
5.39281e+08
5.37628e+08
5.35551e+08
5.33057e+08
5.30155e+08
5.26853e+08
5.23161e+08
5.19086e+08
5.14641e+08
5.09835e+08
5.04681e+08
4.99191e+08
4.93377e+08
4.87254e+08
4.80835e+08
4.74136e+08
4.6717e+08
4.59954e+08
4.52503e+08
4.44833e+08
4.36961e+08
4.28902e+08
4.20673e+08
4.1229e+08
4.0377e+08
3.9513e+08
3.86385e+08
3.77552e+08
3.68646e+08
3.59683e+08
3.50679e+08
3.41647e+08
3.32604e+08
3.23563e+08
3.14538e+08
3.05543e+08
2.96589e+08
2.8769e+08
2.78856e+08
2.70101e+08
2.61433e+08
2.52863e+08
2.44401e+08
2.36055e+08
2.27834e+08
2.19745e+08
2.11796e+08
2.03993e+08
1.96343e+08
1.88849e+08
1.81518e+08
1.74353e+08
1.67358e+08
1.60536e+08
1.5389e+08
1.47422e+08
1.41133e+08
1.35025e+08
1.29098e+08
1.23353e+08
1.17789e+08
1.12406e+08
1.07202e+08
1.02178e+08
9.733e+07
9.26574e+07
8.81577e+07
8.38284e+07
7.96667e+07
7.56697e+07
7.18343e+07
6.81571e+07
6.46346e+07
6.12631e+07
5.80389e+07
5.49581e+07
5.20167e+07
4.92106e+07
4.65358e+07
4.39881e+07
4.15633e+07
3.92571e+07
3.70655e+07
3.49842e+07
3.30091e+07
3.11359e+07
2.93608e+07
2.76795e+07
2.60882e+07
2.45829e+07
2.31599e+07
2.18155e+07
2.05459e+07
1.93476e+07
1.82172e+07
1.71513e+07
1.61468e+07
1.52005e+07
1.43093e+07
1.34704e+07
1.26809e+07
1.19382e+07
1.12398e+07
1.05831e+07
9.96575e+06
9.38559e+06
8.84046e+06
8.3283e+06
7.84718e+06
7.39525e+06
6.97074e+06
6.57197e+06
6.19729e+06
5.84508e+06
5.51792e+06
5.21799e+06
4.93954e+06
4.67857e+06
4.43198e+06
4.19679e+06
3.96956e+06
3.74586e+06
3.5194e+06
3.28076e+06
3.01484e+06
2.69626e+06
2.28159e+06
1.70792e+06
985556
390672
225438
215596
215319
215310
215310
215310
215310
215310
215310
215310
215310
215310
215310
215310
215310
215310
215310
215310
215310
215310
215310
215310
215310
215310
215310
215310
215310
215310
215310
215310
215310
215310
215310
215310
215310
215310
215310
215310
215310
215310
215310
215310
215310
215310
215310
215310
215310
215310
215310
215310
215310
215310
215310
215310
215310
215310
215310
215310
215310
215310
215310
215310
215310
215310
215310
215310
215310
215310
215310
215310
215310
215310
215310
215310
215310
215310
215310
215310
215310
215310
215310
215310
215310
215310
215310
215310
215310
215310
215310
215310
215310
215310
215310
215310
215310
215310
215310
215310
215310
215310
215310
215310
215310
215310
215310
215310
215310
215310
215310
215310
215310
215310
215310
215310
215310
215310
215310
215310
215310
215310
215310
215310
215310
215310
215310
215310
215310
215310
215310
215310
215310
215310
215310
215310
215310
215310
215310
215310
215310
215310
215310
215310
215310
215310
215310
215310
215310
215310
215310
215310
215310
215310
215310
215310
215310
215310
215310
215310
215310
215310
215310
215310
215310
215310
215310
215310
215310
215310
215310
215310
215310
215310
215310
215310
215310
215310
215310
215310
215310
215310
215310
215310
215310
215310
215310
215310
215310
215310
215310
215310
215310
215310
215310
215310
215310
215310
215310
215310
215310
215310
215310
215310
215310
215310
215310
215310
215310
215310
215310
215310
215310
215310
215310
215310
215310
215310
215310
215310
215310
215310
215310
215310
215310
215310
215310
215310
215310
215310
215310
215310
215310
215310
215310
215310
215310
215310
215310
215310
215310
215310
215310
215310
215310
215310
215310
215310
215310
215310
215310
215310
215310
215310
215310
215310
215310
215310
215310
215310
215310
215310
215310
215310
215310
215310
215310
215310
215310
215310
215310
215310
215310
215310
215310
215310
215310
215310
215310
215310
215310
215310
215310
215310
215310
215310
215310
215310
215310
215310
215310
215310
215310
215310
215310
215310
215310
215310
215310
215310
215310
215310
215310
215310
215310
215310
215310
215310
215310
215310
215310
215310
215310
215310
215310
215310
215310
215310
215310
215310
215310
215310
215310
215310
215310
215310
215310
215310
215310
215310
215310
215310
215310
215310
215310
215310
215310
215310
215310
215310
215310
215310
215310
215310
215310
215310
215310
215310
215310
215310
215310
215310
215310
215310
215310
215310
215310
215310
215310
215310
215310
215310
215310
215310
215310
215310
215310
215310
215310
)
;

boundaryField
{
    wedge0
    {
        type            wedge;
    }
    wedge1
    {
        type            wedge;
    }
    wedge2
    {
        type            wedge;
    }
    wedge3
    {
        type            wedge;
    }
    outlet
    {
        type            zeroGradient;
    }
    defaultFaces
    {
        type            empty;
    }
}


// ************************************************************************* //
