/*--------------------------------*- C++ -*----------------------------------*\
| =========                 |                                                 |
| \\      /  F ield         | OpenFOAM: The Open Source CFD Toolbox           |
|  \\    /   O peration     | Version:  2312                                  |
|   \\  /    A nd           | Website:  www.openfoam.com                      |
|    \\/     M anipulation  |                                                 |
\*---------------------------------------------------------------------------*/
FoamFile
{
    version     2.0;
    format      ascii;
    arch        "LSB;label=32;scalar=64";
    class       volVectorField;
    location    "2e-05";
    object      U;
}
// * * * * * * * * * * * * * * * * * * * * * * * * * * * * * * * * * * * * * //

dimensions      [0 1 -1 0 0 0 0];

internalField   nonuniform List<vector> 
500
(
(13.6916 -4.40629e-10 4.41454e-10)
(24.6596 -4.0917e-10 4.09842e-10)
(36.895 -4.48348e-10 4.48315e-10)
(49.8921 -4.53332e-10 4.54084e-10)
(63.1942 -4.09535e-10 4.09546e-10)
(76.6444 -4.10709e-10 4.10655e-10)
(90.1774 -4.05373e-10 4.05365e-10)
(103.761 -3.96991e-10 3.97116e-10)
(117.379 -3.67401e-10 3.67471e-10)
(131.021 -3.25844e-10 3.25872e-10)
(144.68 -2.88345e-10 2.88312e-10)
(158.353 -2.53809e-10 2.53813e-10)
(172.036 -2.25688e-10 2.25645e-10)
(185.728 -1.9437e-10 1.94369e-10)
(199.427 -1.63313e-10 1.63293e-10)
(213.132 -1.33073e-10 1.33063e-10)
(226.843 -1.05081e-10 1.05117e-10)
(240.559 -9.06119e-11 9.06867e-11)
(254.279 -7.93696e-11 7.93767e-11)
(268.004 -7.42411e-11 7.42301e-11)
(281.732 -7.21956e-11 7.21811e-11)
(295.464 -7.2712e-11 7.26888e-11)
(309.2 -7.53641e-11 7.53235e-11)
(322.939 -7.74481e-11 7.74434e-11)
(336.682 -7.63569e-11 7.63532e-11)
(350.428 -7.3061e-11 7.30612e-11)
(364.178 -7.13724e-11 7.13706e-11)
(377.932 -7.24795e-11 7.24801e-11)
(391.689 -6.68905e-11 6.68903e-11)
(405.45 -6.15548e-11 6.15547e-11)
(419.215 -5.8666e-11 5.8666e-11)
(432.984 -5.59443e-11 5.59443e-11)
(446.757 -5.10207e-11 5.10207e-11)
(460.535 -4.71694e-11 4.71694e-11)
(474.317 -4.30855e-11 4.30855e-11)
(488.103 -3.9375e-11 3.9375e-11)
(501.894 -3.59213e-11 3.59213e-11)
(515.69 -3.31292e-11 3.31292e-11)
(529.492 -3.13622e-11 3.13622e-11)
(543.299 -3.08487e-11 3.08487e-11)
(557.112 -2.95421e-11 2.95421e-11)
(570.931 -2.75917e-11 2.75917e-11)
(584.756 -2.55849e-11 2.55849e-11)
(598.588 -2.29732e-11 2.29732e-11)
(612.427 -2.12745e-11 2.12745e-11)
(626.274 -2.04164e-11 2.04164e-11)
(640.129 -1.76985e-11 1.76985e-11)
(653.991 -1.57591e-11 1.57591e-11)
(667.863 -1.22488e-11 1.22488e-11)
(681.744 -1.04071e-11 1.04071e-11)
(695.635 -8.08211e-12 8.08211e-12)
(709.536 -5.26257e-12 5.26257e-12)
(723.448 -3.3893e-12 3.3893e-12)
(737.372 -1.56328e-12 1.56328e-12)
(751.308 -4.32058e-13 4.32058e-13)
(765.258 0 2.41667e-32)
(779.221 0 2.28428e-32)
(793.199 1.79476e-13 -1.79476e-13)
(807.193 1.05494e-12 -1.05494e-12)
(821.204 2.46016e-12 -2.46016e-12)
(835.232 2.17802e-12 -2.17802e-12)
(849.279 1.96708e-12 -1.96708e-12)
(863.347 1.66877e-12 -1.66877e-12)
(877.436 8.41494e-13 -8.41494e-13)
(891.548 2.97929e-13 -2.97929e-13)
(905.684 1.64897e-13 -1.64897e-13)
(919.847 4.66331e-13 -4.66331e-13)
(934.037 1.2424e-12 -1.2424e-12)
(948.257 9.45585e-13 -9.45585e-13)
(962.508 8.52472e-13 -8.52472e-13)
(976.794 7.75137e-13 -7.75137e-13)
(991.116 6.06841e-13 -6.06841e-13)
(1005.48 2.17411e-13 -2.17411e-13)
(1019.88 6.43425e-14 -6.43425e-14)
(1034.33 1.81793e-13 -1.81793e-13)
(1048.82 6.02806e-13 -6.02806e-13)
(1063.37 4.17524e-13 -4.17524e-13)
(1077.97 4.10135e-13 -4.10135e-13)
(1092.63 3.45706e-13 -3.45706e-13)
(1107.36 1.06879e-13 -1.06899e-13)
(1122.15 2.03e-14 -1.97085e-14)
(1137.02 1.22599e-13 -1.21538e-13)
(1151.96 4.02913e-13 -4.03306e-13)
(1166.99 3.97884e-13 -3.98213e-13)
(1182.12 2.62561e-13 -2.62412e-13)
(1197.34 -1.11583e-13 1.11751e-13)
(1212.67 -1.5091e-13 1.51227e-13)
(1228.11 -3.92377e-13 3.92659e-13)
(1243.68 -3.85747e-13 3.85498e-13)
(1259.38 -3.85556e-13 3.85633e-13)
(1275.22 -5.43843e-13 5.43793e-13)
(1291.22 -4.20839e-13 4.20527e-13)
(1307.39 -3.81939e-13 3.8199e-13)
(1323.74 -4.11715e-13 4.12115e-13)
(1340.29 -3.78473e-13 3.78726e-13)
(1357.06 -3.74773e-13 3.74962e-13)
(1374.05 -4.35547e-13 4.35414e-13)
(1391.3 -3.78129e-13 3.7837e-13)
(1408.81 -2.56367e-13 2.63332e-13)
(1426.62 -1.21186e-13 1.27134e-13)
(1444.75 -3.4431e-14 3.92274e-14)
(1463.22 0 4.51919e-34)
(1482.07 0 0)
(1501.32 0 5.61249e-15)
(1521.01 0 -4.95425e-15)
(1541.18 4.30458e-14 -4.74065e-14)
(1561.88 7.2239e-16 -4.6169e-15)
(1583.14 4.67651e-14 -4.96321e-14)
(1605.01 5.01161e-14 -4.8648e-14)
(1627.56 2.34615e-14 -2.34336e-14)
(1650.83 1.882e-14 -1.88016e-14)
(1674.88 1.13519e-13 -1.13523e-13)
(1699.79 1.21593e-13 -1.2154e-13)
(1725.62 8.74339e-14 -8.7334e-14)
(1752.4 1.53565e-13 -1.53553e-13)
(1780.18 2.42356e-13 -2.42354e-13)
(1808.94 2.2085e-13 -2.20812e-13)
(1838.73 1.77057e-13 -1.77117e-13)
(1869.42 1.37617e-13 -1.37081e-13)
(1900.57 4.04769e-14 -3.99932e-14)
(1931.6 2.61586e-14 -2.61578e-14)
(1961.56 8.44166e-14 -8.44167e-14)
(1988.88 5.61159e-14 -5.6116e-14)
(2011.06 3.46859e-14 -3.46859e-14)
(2024.12 1.80674e-14 -1.80674e-14)
(2021.76 1.08858e-14 -1.08858e-14)
(1994.1 5.14763e-15 -5.14763e-15)
(1925.55 1.77623e-15 -1.77623e-15)
(1791.63 5.95203e-16 -5.95203e-16)
(1555.41 0 0)
(1171.92 0 0)
(648.867 0 0)
(182.313 -1.15457e-15 1.15457e-15)
(16.9507 -8.92582e-15 8.92582e-15)
(0.745502 -2.3352e-14 2.3352e-14)
(0.0289616 -2.17079e-14 2.17079e-14)
(0.00111321 -1.67833e-15 1.67833e-15)
(4.25174e-05 0 0)
(1.61378e-06 0 0)
(6.08679e-08 0 0)
(2.28103e-09 0 0)
(8.95253e-11 -1.84297e-15 1.84297e-15)
(1.10052e-11 -9.2636e-15 9.2636e-15)
(7.79317e-12 0 0)
(4.57023e-12 0 0)
(-2.45667e-13 0 0)
(-3.44147e-13 0 0)
(-5.99484e-13 0 0)
(-3.95795e-12 0 0)
(7.85439e-14 5.05464e-15 -5.05464e-15)
(-2.32962e-12 0 0)
(2.76e-12 -4.92419e-15 4.92419e-15)
(5.66047e-12 0 0)
(3.56324e-12 3.21772e-15 -3.21772e-15)
(5.7422e-12 -3.13717e-15 3.13717e-15)
(1.3347e-12 0 0)
(-6.39448e-13 -1.22547e-16 1.26608e-16)
(-3.76903e-12 -9.40942e-15 9.42085e-15)
(-2.03549e-12 -9.52433e-15 9.54089e-15)
(-3.19779e-12 -1.86092e-14 1.86307e-14)
(-4.98866e-12 -1.87618e-14 1.87754e-14)
(4.11864e-12 -1.01988e-14 1.02056e-14)
(7.40921e-12 -1.03512e-14 1.03512e-14)
(-1.69771e-12 -2.09554e-14 2.09554e-14)
(-4.01525e-12 -6.23796e-15 6.23796e-15)
(-5.0823e-12 0 0)
(-7.113e-12 0 0)
(-2.76235e-12 4.02859e-15 -4.02859e-15)
(-4.85966e-12 0 0)
(-2.04224e-12 0 0)
(8.0702e-13 0 0)
(1.48638e-12 -3.84134e-15 3.82252e-15)
(3.72935e-12 0 -3.93101e-17)
(1.58342e-12 0 0)
(-5.88863e-13 -7.42402e-15 7.42402e-15)
(-4.32927e-12 -7.38039e-15 7.38039e-15)
(-8.79177e-12 -4.27187e-17 4.27187e-17)
(-4.49012e-12 0 0)
(3.92382e-12 -3.15037e-17 3.15037e-17)
(1.98711e-13 6.99362e-15 -6.99362e-15)
(-4.34394e-12 6.96256e-15 -6.96256e-15)
(-5.68845e-12 3.18585e-17 -3.18585e-17)
(-6.75777e-12 0 0)
(-5.85427e-12 0 0)
(3.1201e-12 0 0)
(1.07969e-11 0 0)
(6.57935e-12 0 0)
(2.58203e-12 0 0)
(-9.20308e-13 0 0)
(8.08911e-13 0 0)
(-7.16837e-13 3.11337e-15 -3.11337e-15)
(-1.10749e-12 0 0)
(1.04306e-12 0 0)
(-9.11698e-13 -2.02361e-15 2.02361e-15)
(-5.91239e-13 1.98084e-15 -1.98084e-15)
(3.44248e-12 0 0)
(7.94569e-12 -2.92713e-15 2.92713e-15)
(6.6211e-12 0 0)
(4.8094e-12 0 0)
(-3.28232e-12 5.68433e-15 -5.68144e-15)
(-8.91562e-12 5.66078e-15 -5.65337e-15)
(8.22196e-13 3.30793e-17 -3.02454e-17)
(3.27326e-12 0 0)
(1.65746e-12 -7.55771e-16 7.55771e-16)
(1.21451e-12 -6.93373e-15 6.93373e-15)
(-1.64143e-12 -7.67252e-15 7.67252e-15)
(-4.59383e-12 -3.0739e-15 3.0739e-15)
(-9.28174e-12 -3.79666e-15 3.79666e-15)
(-1.84691e-12 7.09536e-16 -7.09536e-16)
(7.99119e-12 0 0)
(8.46012e-12 0 0)
(3.44035e-12 -2.43799e-15 2.43799e-15)
(8.48453e-13 -9.88054e-15 9.88054e-15)
(-2.92247e-12 -1.22829e-14 1.22829e-14)
(-4.69506e-12 -1.95972e-14 1.95972e-14)
(5.59208e-13 -2.19555e-14 2.19555e-14)
(-3.37956e-12 -9.75529e-15 9.75529e-15)
(-5.76866e-12 -2.46634e-15 2.46634e-15)
(-8.52158e-13 0 0)
(2.66167e-12 0 0)
(6.93787e-12 0 0)
(4.71452e-12 0 0)
(3.38778e-12 0 0)
(8.71808e-12 2.08928e-15 -2.08928e-15)
(3.36509e-12 8.66413e-15 -8.66413e-15)
(-5.08123e-12 1.78616e-15 -1.78616e-15)
(-1.5734e-12 -2.83699e-15 2.83699e-15)
(-1.65904e-13 -1.18047e-14 1.18047e-14)
(-3.30555e-12 -7.64935e-15 7.64935e-15)
(-3.10435e-12 -7.83973e-15 7.83973e-15)
(-4.00842e-12 -1.23008e-14 1.23008e-14)
(-1.95579e-12 -4.01512e-15 4.01512e-15)
(-2.29779e-12 0 0)
(-9.26686e-12 0 0)
(-3.2173e-12 0 0)
(7.7563e-12 0 0)
(1.04202e-11 0 0)
(3.22399e-12 0 0)
(-4.4699e-12 0 0)
(-4.82114e-12 -2.85142e-15 2.85142e-15)
(-3.96616e-12 -9.60286e-15 9.60286e-15)
(-4.17259e-12 -4.62224e-15 4.62224e-15)
(-2.49017e-12 -1.16821e-15 1.16821e-15)
(4.07841e-12 1.37418e-14 -1.37418e-14)
(3.32395e-12 1.71998e-14 -1.71998e-14)
(-2.03053e-12 1.49622e-14 -1.49622e-14)
(-3.37838e-12 2.98777e-15 -2.98777e-15)
(1.21011e-12 2.22394e-15 -2.22394e-15)
(9.01888e-12 5.14184e-15 -5.14184e-15)
(6.06148e-12 -2.89115e-15 2.89115e-15)
(-3.91781e-12 -5.45988e-18 5.45988e-18)
(-8.57986e-12 0 0)
(-7.4256e-12 0 0)
(-4.81738e-12 0 0)
(-2.08434e-13 0 0)
(8.21748e-12 0 0)
(4.59709e-12 -1.70518e-15 1.70518e-15)
(-1.49716e-12 -6.81817e-15 6.81817e-15)
(-3.28727e-12 -1.70579e-15 1.70579e-15)
(-5.10556e-12 0 0)
(1.56559e-12 0 0)
(4.90564e-12 0 0)
(2.04136e-12 1.14741e-15 -1.14741e-15)
(-2.1264e-12 5.55279e-15 -5.55279e-15)
(8.72293e-14 1.3168e-14 -1.3168e-14)
(6.94681e-12 1.13639e-14 -1.13639e-14)
(6.949e-13 1.27667e-14 -1.27667e-14)
(-8.48241e-12 5.3247e-15 -5.3247e-15)
(-4.18259e-12 1.08494e-15 -1.08494e-15)
(5.15447e-13 0 0)
(3.34796e-13 0 0)
(-1.18023e-12 0 0)
(-2.80517e-12 0 0)
(-1.91978e-12 0 0)
(2.94937e-12 -1.48964e-15 1.48964e-15)
(5.41611e-12 -5.95609e-15 5.95609e-15)
(8.14089e-12 -1.48984e-15 1.48984e-15)
(1.26897e-11 0 0)
(8.18973e-12 0 0)
(-5.64525e-12 0 0)
(-3.51812e-12 0 0)
(6.97872e-12 9.41209e-16 -9.41209e-16)
(3.03885e-12 4.71753e-15 -4.71753e-15)
(-5.88683e-12 0 0)
(-5.25579e-12 -4.65805e-15 4.65805e-15)
(-4.14634e-12 -9.34518e-16 9.34518e-16)
(-4.37382e-12 0 0)
(-5.45211e-13 0 0)
(-1.2854e-12 -2.716e-15 2.716e-15)
(-4.30173e-13 0 0)
(3.35187e-12 0 0)
(2.72629e-12 1.78032e-15 -1.78032e-15)
(-5.22858e-13 -1.75544e-15 1.75544e-15)
(-2.58979e-12 0 0)
(1.04232e-12 0 0)
(4.08095e-12 1.73221e-15 -1.73221e-15)
(4.72552e-12 -1.707e-15 1.707e-15)
(6.68504e-12 0 0)
(-4.70496e-13 0 0)
(-1.09046e-11 0 0)
(-7.80221e-12 -2.50277e-15 2.50277e-15)
(2.97352e-12 -4.00604e-19 4.00604e-19)
(6.79015e-12 -2.4705e-15 2.4705e-15)
(2.96499e-12 0 0)
(-3.71897e-12 2.43833e-15 -2.43833e-15)
(-4.56607e-12 0 0)
(-5.63667e-12 0 0)
(-4.33916e-12 0 0)
(1.41532e-12 -4.7505e-15 4.7505e-15)
(9.30886e-13 -4.73534e-15 4.73534e-15)
(-7.4785e-13 -1.60424e-17 1.60424e-17)
(4.37403e-12 0 0)
(1.48516e-12 0 0)
(-1.44184e-11 0 0)
(-1.50197e-11 2.28433e-15 -2.28433e-15)
(-1.65549e-12 0 0)
(4.90015e-12 0 0)
(1.16439e-11 -3.84066e-16 3.84066e-16)
(1.52191e-11 -5.23578e-15 5.23578e-15)
(7.6455e-12 -1.44978e-14 1.44978e-14)
(-2.79547e-12 -1.92886e-14 1.92886e-14)
(-5.69229e-12 -1.96611e-14 1.96611e-14)
(-1.21597e-12 -1.5671e-14 1.5671e-14)
(2.66226e-12 -1.60376e-14 1.60376e-14)
(1.63427e-12 -1.20953e-14 1.20953e-14)
(2.2535e-12 -3.89607e-15 3.89607e-15)
(3.17941e-12 0 0)
(8.77108e-14 0 0)
(-5.5826e-12 2.09494e-15 -2.09494e-15)
(-7.5337e-12 0 0)
(1.26362e-12 0 0)
(6.77328e-12 0 0)
(8.11193e-12 0 0)
(3.12075e-12 -4.06505e-15 4.06505e-15)
(-2.45604e-12 -4.0534e-15 4.0534e-15)
(-2.28869e-12 -1.27789e-17 1.27789e-17)
(-1.52579e-12 0 0)
(-4.6134e-12 0 0)
(-5.5909e-12 0 0)
(-2.89703e-12 0 0)
(-3.27821e-12 0 0)
(4.44188e-12 -1.9383e-15 1.9383e-15)
(4.09186e-12 0 0)
(-6.11336e-12 0 0)
(-7.44522e-12 1.90417e-15 -1.90417e-15)
(-2.51557e-12 7.08952e-19 -7.08952e-19)
(3.26107e-12 1.88334e-15 -1.88334e-15)
(4.07738e-12 0 0)
(-5.83926e-13 -3.09444e-15 3.09444e-15)
(-1.66182e-12 -2.46129e-15 2.46129e-15)
(1.44701e-12 -5.52102e-15 5.52102e-15)
(-3.81887e-12 -4.89384e-15 4.89384e-15)
(-1.07298e-12 -6.20021e-16 6.20021e-16)
(7.99675e-12 0 0)
(5.12479e-12 0 0)
(2.89549e-12 1.78786e-15 -1.78786e-15)
(4.84077e-12 0 0)
(1.40869e-12 -4.24041e-15 4.24041e-15)
(-5.3801e-12 -4.93151e-15 4.93151e-15)
(-6.68846e-12 -2.10969e-15 2.10969e-15)
(-4.82626e-12 -2.79125e-15 2.79125e-15)
(-4.7693e-12 0 0)
(-2.02866e-12 0 0)
(5.15403e-12 -1.70983e-15 1.70983e-15)
(3.7134e-12 1.17724e-18 -1.17724e-18)
(1.26994e-12 -1.69115e-15 1.69115e-15)
(3.1281e-12 0 0)
(-5.53733e-13 1.6732e-15 -1.6732e-15)
(-3.11382e-12 0 0)
(-1.68322e-12 0 0)
(-3.60463e-12 -7.97634e-16 7.97634e-16)
(-3.44887e-12 -4.87653e-15 4.87653e-15)
(3.96511e-12 -5.66569e-15 5.66569e-15)
(7.3859e-12 -9.69877e-15 9.69877e-15)
(2.08084e-12 -1.04783e-14 1.04783e-14)
(-2.42902e-12 -8.03859e-15 8.03859e-15)
(-2.60467e-12 -2.4142e-15 2.4142e-15)
(-7.5271e-13 0 0)
(-4.1296e-12 0 0)
(-3.38822e-12 1.56995e-15 -1.56995e-15)
(-2.33451e-12 5.84293e-19 -5.84293e-19)
(-5.67568e-12 1.55343e-15 -1.55343e-15)
(-2.80544e-12 0 0)
(-1.83995e-12 0 0)
(1.93701e-12 -1.52825e-15 1.52825e-15)
(4.47963e-12 0 0)
(4.94477e-12 0 0)
(3.78381e-12 0 0)
(2.62913e-12 2.99565e-15 -2.99565e-15)
(-5.78138e-13 2.98812e-15 -2.98812e-15)
(-3.07725e-12 8.00328e-18 -8.00328e-18)
(2.4015e-12 0 0)
(1.33064e-12 0 0)
(-2.92333e-12 1.45999e-15 -1.45999e-15)
(-4.81743e-12 0 0)
(-2.29702e-12 0 0)
(8.11382e-13 0 0)
(3.78174e-12 0 0)
(2.5913e-12 0 0)
(2.31935e-13 0 0)
(-3.66258e-12 0 0)
(-1.75235e-12 0 0)
(5.28048e-12 -1.1614e-16 1.1614e-16)
(3.82366e-12 2.56518e-15 -2.56518e-15)
(1.63163e-13 8.00265e-15 -8.00265e-15)
(2.16049e-12 1.06573e-14 -1.06573e-14)
(2.40182e-12 1.05573e-14 -1.05573e-14)
(-9.60841e-13 3.90487e-15 -3.90487e-15)
(-3.18622e-12 0 0)
(7.08852e-13 -1.34755e-15 1.34755e-15)
(3.03115e-12 0 0)
(-2.31151e-12 0 0)
(-4.61626e-12 0 0)
(-4.05653e-12 0 0)
(2.51963e-13 0 0)
(3.95481e-13 0 0)
(-7.75655e-13 0 0)
(7.02738e-13 0 0)
(2.4301e-13 -8.62347e-16 8.62347e-16)
(4.63599e-12 8.54628e-16 -8.54628e-16)
(7.55332e-12 0 0)
(5.50148e-12 0 0)
(4.48769e-12 -1.26729e-15 1.26729e-15)
(2.36724e-12 -1.79693e-18 1.79693e-18)
(7.30923e-13 -1.25557e-15 1.25557e-15)
(-1.95003e-12 -1.53986e-18 1.53986e-18)
(-3.67455e-12 -1.24347e-15 1.24347e-15)
(-6.90115e-13 0 0)
(4.08109e-12 -8.22838e-16 8.22838e-16)
(6.87904e-12 8.14527e-16 -8.14527e-16)
(2.71733e-12 0 0)
(-9.6902e-12 1.21433e-15 -1.21433e-15)
(-1.33227e-11 5.65208e-19 -5.65208e-19)
(-7.74615e-12 1.20331e-15 -1.20331e-15)
(-3.40667e-12 0 0)
(2.58409e-13 7.96142e-16 -7.96142e-16)
(6.22062e-12 -7.89161e-16 7.89161e-16)
(2.20028e-12 0 0)
(9.22813e-13 -6.90004e-16 6.90004e-16)
(7.76791e-12 -3.72159e-15 3.72159e-15)
(-3.81752e-12 -9.07399e-15 9.07399e-15)
(-8.58406e-12 -7.73466e-15 7.73466e-15)
(1.20631e-12 0 0)
(3.141e-12 8.27224e-15 -8.27224e-15)
(2.56088e-12 9.62746e-15 -9.62746e-15)
(-1.52126e-12 4.12813e-15 -4.12813e-15)
(-8.10406e-12 9.26006e-16 -9.26006e-16)
(-1.37565e-12 0 0)
(8.66265e-12 9.53667e-16 -9.53667e-16)
(9.80251e-12 4.14513e-15 -4.14513e-15)
(1.86515e-12 6.24716e-16 -6.24716e-16)
(-6.24267e-12 -6.57899e-16 6.57899e-16)
(-2.06823e-12 -4.11861e-15 4.11861e-15)
(6.79146e-12 -9.56032e-16 9.56032e-16)
(7.18012e-12 0 0)
(-1.44477e-12 0 0)
(-4.63199e-12 -1.65212e-15 1.65212e-15)
(-2.36193e-12 -5.46187e-15 5.46187e-15)
(-1.90685e-13 -1.14098e-14 1.14098e-14)
(2.01529e-12 -1.38934e-14 1.38934e-14)
(2.51002e-12 -1.4002e-14 1.4002e-14)
(2.7625e-12 -1.11036e-14 1.11036e-14)
(1.2455e-12 -5.27442e-15 5.27442e-15)
(-1.85617e-12 -1.57966e-15 1.57966e-15)
(5.95374e-13 0 0)
(2.73599e-13 0 0)
(1.05848e-13 0 0)
(4.95774e-12 0 0)
(-7.82805e-13 0 0)
(-3.46797e-12 0 0)
(-7.62926e-12 0 0)
(-8.49241e-12 6.73757e-16 -6.73757e-16)
(2.58889e-12 3.28943e-15 -3.28943e-15)
(6.33348e-12 -1.67467e-16 1.67467e-16)
(3.2132e-13 -5.62146e-15 5.62146e-15)
(-4.72668e-12 -5.04161e-15 5.04161e-15)
(-5.93349e-13 -6.45904e-15 6.45904e-15)
(4.23996e-12 -1.90991e-15 1.90991e-15)
(4.39877e-12 6.41744e-16 -6.41744e-16)
(-8.89698e-13 3.70571e-15 -3.70571e-15)
(-5.17239e-12 8.70114e-16 -8.70114e-16)
(-5.75049e-12 0 0)
(-3.19007e-12 0 0)
(-7.0767e-12 0 0)
(-8.24388e-12 -1.75892e-17 1.75892e-17)
(3.25554e-12 -1.93392e-15 1.93392e-15)
(4.07017e-12 1.89982e-15 -1.89982e-15)
(3.39231e-12 0 0)
(2.7242e-12 -3.75049e-15 3.75049e-15)
(-5.69546e-12 -9.37641e-15 9.37641e-15)
(-7.60226e-12 -1.01447e-14 1.01447e-14)
(-4.71855e-12 -9.00997e-15 9.00997e-15)
(3.76173e-12 -4.13181e-15 4.13181e-15)
(8.23106e-12 -1.13366e-15 1.13366e-15)
(1.58594e-12 0 0)
(6.88343e-12 0 0)
(5.15779e-12 -9.13902e-16 9.13902e-16)
(6.53888e-13 -3.65325e-15 3.65325e-15)
(4.87173e-14 -9.13799e-16 9.13799e-16)
(-6.89795e-12 0 0)
)
;

boundaryField
{
    wedge0
    {
        type            wedge;
    }
    wedge1
    {
        type            wedge;
    }
    wedge2
    {
        type            wedge;
    }
    wedge3
    {
        type            wedge;
    }
    outlet
    {
        type            zeroGradient;
    }
    defaultFaces
    {
        type            empty;
    }
}


// ************************************************************************* //
