/*--------------------------------*- C++ -*----------------------------------*\
| =========                 |                                                 |
| \\      /  F ield         | OpenFOAM: The Open Source CFD Toolbox           |
|  \\    /   O peration     | Version:  2312                                  |
|   \\  /    A nd           | Website:  www.openfoam.com                      |
|    \\/     M anipulation  |                                                 |
\*---------------------------------------------------------------------------*/
FoamFile
{
    version     2.0;
    format      ascii;
    arch        "LSB;label=32;scalar=64";
    class       volScalarField;
    location    "0.0009";
    object      thermo:e;
}
// * * * * * * * * * * * * * * * * * * * * * * * * * * * * * * * * * * * * * //

dimensions      [0 2 -2 0 0 0 0];

internalField   nonuniform List<scalar> 
100
(
4.59353e+10
4.59445e+10
4.59604e+10
4.59811e+10
4.60049e+10
4.60307e+10
4.60575e+10
4.60847e+10
4.61117e+10
4.61381e+10
4.61636e+10
4.6188e+10
4.62113e+10
4.62332e+10
4.62539e+10
4.62732e+10
4.62912e+10
4.63079e+10
4.63234e+10
4.63377e+10
4.63509e+10
4.6363e+10
4.63741e+10
4.63842e+10
4.63935e+10
4.6402e+10
4.64098e+10
4.64168e+10
4.64232e+10
4.6429e+10
4.64342e+10
4.6439e+10
4.64433e+10
4.64472e+10
4.64507e+10
4.64538e+10
4.64567e+10
4.64592e+10
4.64615e+10
4.64635e+10
4.64654e+10
4.6467e+10
4.64685e+10
4.64698e+10
4.64709e+10
4.6472e+10
4.64729e+10
4.64737e+10
4.64745e+10
4.64751e+10
4.64757e+10
4.64762e+10
4.64766e+10
4.6477e+10
4.64773e+10
4.64776e+10
4.64779e+10
4.64781e+10
4.64783e+10
4.64785e+10
4.64787e+10
4.64788e+10
4.64789e+10
4.6479e+10
4.64791e+10
4.64792e+10
4.64793e+10
4.64793e+10
4.64794e+10
4.64794e+10
4.64795e+10
4.64795e+10
4.64795e+10
4.64795e+10
4.64796e+10
4.64796e+10
4.64796e+10
4.64796e+10
4.64796e+10
4.64796e+10
4.64796e+10
4.64796e+10
4.64796e+10
4.64796e+10
4.64796e+10
4.64796e+10
4.64796e+10
4.64797e+10
4.64797e+10
4.64797e+10
4.64797e+10
4.64797e+10
4.64797e+10
4.64797e+10
4.64797e+10
4.64797e+10
4.64797e+10
4.64797e+10
4.64797e+10
4.64797e+10
)
;

boundaryField
{
    sides
    {
        type            zeroGradient;
    }
    empty
    {
        type            empty;
    }
}


// ************************************************************************* //
