/*--------------------------------*- C++ -*----------------------------------*\
| =========                 |                                                 |
| \\      /  F ield         | OpenFOAM: The Open Source CFD Toolbox           |
|  \\    /   O peration     | Version:  2312                                  |
|   \\  /    A nd           | Website:  www.openfoam.com                      |
|    \\/     M anipulation  |                                                 |
\*---------------------------------------------------------------------------*/
FoamFile
{
    version     2.0;
    format      ascii;
    arch        "LSB;label=32;scalar=64";
    class       volScalarField;
    location    "0.0002";
    object      p;
}
// * * * * * * * * * * * * * * * * * * * * * * * * * * * * * * * * * * * * * //

dimensions      [1 -1 -2 0 0 0 0];

internalField   nonuniform List<scalar> 
500
(
181182
181211
181229
181241
181250
181258
181264
181269
181274
181278
181282
181286
181289
181293
181296
181299
181301
181304
181307
181309
181312
181314
181317
181319
181321
181324
181326
181328
181331
181333
181335
181338
181340
181342
181344
181347
181349
181351
181354
181356
181359
181361
181364
181366
181369
181371
181374
181376
181379
181382
181385
181387
181390
181393
181396
181399
181402
181405
181409
181412
181415
181418
181422
181425
181429
181432
181436
181440
181444
181448
181452
181456
181460
181464
181469
181473
181478
181482
181487
181492
181497
181502
181507
181513
181518
181524
181529
181535
181541
181547
181554
181560
181567
181573
181580
181587
181595
181602
181610
181617
181626
181634
181642
181651
181660
181669
181678
181688
181698
181708
181718
181729
181740
181751
181762
181774
181787
181799
181812
181825
181839
181853
181867
181882
181897
181913
181929
181945
181962
181980
181998
182016
182036
182055
182075
182096
182118
182140
182163
182186
182210
182235
182261
182287
182315
182343
182372
182402
182433
182464
182497
182531
182566
182602
182639
182677
182717
182758
182800
182844
182889
182935
182983
183032
183083
183136
183191
183247
183305
183365
183428
183492
183558
183627
183697
183771
183846
183925
184006
184089
184176
184265
184358
184453
184552
184654
184760
184869
184982
185099
185220
185346
185475
185609
185748
185891
186039
186193
186351
186515
186685
186861
187043
187231
187425
187627
187835
188050
188273
188504
188742
188989
189244
189508
189781
190063
190356
190658
190970
191294
191628
191974
192331
192701
193084
193479
193888
194311
194748
195200
195667
196150
196649
197165
197698
198249
198818
199407
200015
200643
201292
201963
202656
203372
204111
204874
205663
206477
207318
208186
209083
210008
210964
211950
212968
214018
215103
216221
217376
218567
219796
221064
222371
223720
225111
226546
228025
229550
231123
232744
234415
236137
237912
239741
241626
243568
245569
247630
249753
251939
254191
256509
258896
261353
263883
266486
269165
271922
274758
277676
280677
283763
286938
290201
293556
297005
300550
304193
307935
311780
315729
319785
323950
328226
332615
337120
341743
346486
351352
356343
361460
366707
372085
377596
383243
389028
394951
401013
407215
413556
420032
426638
433362
440185
447076
453982
460818
467444
473631
479005
482966
484539
482181
473514
455156
422881
372984
305832
230669
165391
124729
107348
101910
100470
100112
100025
100004
99999.2
99998
99997.7
99997.6
99997.6
99997.6
99997.6
99997.6
99997.6
99997.6
99997.6
99997.6
99997.6
99997.6
99997.6
99997.6
99997.6
99997.6
99997.6
99997.6
99997.6
99997.6
99997.6
99997.6
99997.6
99997.6
99997.6
99997.6
99997.6
99997.6
99997.6
99997.6
99997.6
99997.6
99997.6
99997.6
99997.6
99997.6
99997.6
99997.6
99997.6
99997.6
99997.6
99997.6
99997.6
99997.6
99997.6
99997.6
99997.6
99997.6
99997.6
99997.6
99997.6
99997.6
99997.6
99997.6
99997.6
99997.6
99997.6
99997.6
99997.6
99997.6
99997.6
99997.6
99997.6
99997.6
99997.6
99997.6
99997.6
99997.6
99997.6
99997.6
99997.6
99997.6
99997.6
99997.6
99997.6
99997.6
99997.6
99997.6
99997.6
99997.6
99997.6
99997.6
99997.6
99997.6
99997.6
99997.6
99997.6
99997.6
99997.6
99997.6
99997.6
99997.6
99997.6
99997.6
99997.6
99997.6
99997.6
99997.6
99997.6
99997.6
99997.6
99997.6
99997.6
99997.6
99997.6
99997.6
99997.6
99997.6
99997.6
99997.6
99997.6
99997.6
99997.6
99997.6
99997.6
99997.6
99997.6
99997.6
99997.6
99997.6
99997.6
99997.6
99997.6
99997.6
99997.6
99997.6
99997.6
99997.6
99997.6
99997.6
99997.6
99997.6
99997.6
99997.6
99997.6
99997.6
99997.6
99997.6
99997.6
99997.6
99997.6
99997.6
99997.6
99997.6
99997.6
99997.6
99997.6
99997.6
99997.6
99997.6
99997.6
)
;

boundaryField
{
    wedge0
    {
        type            wedge;
    }
    wedge1
    {
        type            wedge;
    }
    wedge2
    {
        type            wedge;
    }
    wedge3
    {
        type            wedge;
    }
    outlet
    {
        type            zeroGradient;
    }
    defaultFaces
    {
        type            empty;
    }
}


// ************************************************************************* //
