/*--------------------------------*- C++ -*----------------------------------*\
| =========                 |                                                 |
| \\      /  F ield         | OpenFOAM: The Open Source CFD Toolbox           |
|  \\    /   O peration     | Version:  2312                                  |
|   \\  /    A nd           | Website:  www.openfoam.com                      |
|    \\/     M anipulation  |                                                 |
\*---------------------------------------------------------------------------*/
FoamFile
{
    version     2.0;
    format      ascii;
    arch        "LSB;label=32;scalar=64";
    class       volScalarField;
    location    "0.0002";
    object      rho;
}
// * * * * * * * * * * * * * * * * * * * * * * * * * * * * * * * * * * * * * //

dimensions      [1 -3 0 0 0 0 0];

internalField   nonuniform List<scalar> 
500
(
0.00440074
0.00440208
0.00440406
0.00440679
0.0044103
0.00441463
0.00441978
0.00442576
0.00443258
0.00444024
0.00444876
0.00445813
0.00446837
0.00447947
0.00449145
0.00450432
0.00451807
0.00453272
0.00454828
0.00456475
0.00458214
0.00460047
0.00461974
0.00463997
0.00466116
0.00468333
0.00470649
0.00473065
0.00475582
0.00478203
0.00480928
0.0048376
0.00486698
0.00489747
0.00492906
0.00496178
0.00499565
0.00503069
0.00506691
0.00510434
0.005143
0.00518292
0.00522411
0.0052666
0.00531041
0.00535558
0.00540213
0.00545008
0.00549947
0.00555032
0.00560267
0.00565655
0.00571199
0.00576902
0.00582769
0.00588802
0.00595006
0.00601384
0.00607941
0.0061468
0.00621606
0.00628724
0.00636037
0.00643551
0.00651271
0.00659201
0.00667348
0.00675715
0.0068431
0.00693137
0.00702202
0.00711512
0.00721074
0.00730893
0.00740976
0.0075133
0.00761963
0.00772883
0.00784095
0.0079561
0.00807434
0.00819577
0.00832046
0.00844852
0.00858003
0.00871509
0.00885381
0.00899627
0.0091426
0.00929289
0.00944727
0.00960585
0.00976874
0.00993609
0.010108
0.0102846
0.0104661
0.0106526
0.0108442
0.0110411
0.0112434
0.0114513
0.011665
0.0118847
0.0121105
0.0123426
0.0125812
0.0128265
0.0130787
0.013338
0.0136047
0.0138789
0.0141609
0.014451
0.0147493
0.0150562
0.0153719
0.0156966
0.0160307
0.0163745
0.0167283
0.0170923
0.0174669
0.0178524
0.0182492
0.0186577
0.0190781
0.019511
0.0199566
0.0204154
0.0208878
0.0213743
0.0218752
0.0223911
0.0229225
0.0234697
0.0240335
0.0246141
0.0252123
0.0258286
0.0264635
0.0271177
0.0277918
0.0284864
0.0292021
0.0299398
0.0307
0.0314835
0.032291
0.0331233
0.0339813
0.0348657
0.0357774
0.0367172
0.0376861
0.038685
0.0397148
0.0407766
0.0418713
0.043
0.0441638
0.0453638
0.0466011
0.0478769
0.0491925
0.050549
0.0519478
0.0533901
0.0548775
0.0564111
0.0579925
0.0596232
0.0613046
0.0630383
0.064826
0.0666692
0.0685697
0.0705291
0.0725493
0.0746321
0.0767793
0.0789929
0.0812748
0.0836269
0.0860515
0.0885505
0.0911262
0.0937807
0.0965164
0.0993354
0.10224
0.105233
0.108317
0.111493
0.114766
0.118137
0.121609
0.125184
0.128866
0.132658
0.136561
0.14058
0.144717
0.148976
0.153358
0.157868
0.162509
0.167284
0.172196
0.177248
0.182445
0.187789
0.193284
0.198934
0.204742
0.210712
0.216847
0.223152
0.229629
0.236284
0.24312
0.250141
0.25735
0.264752
0.272351
0.280151
0.288157
0.296371
0.3048
0.313446
0.322314
0.331408
0.340734
0.350295
0.360095
0.37014
0.380433
0.390979
0.401783
0.412849
0.424182
0.435786
0.447666
0.459827
0.472274
0.48501
0.498041
0.511372
0.525007
0.538951
0.553209
0.567786
0.582686
0.597914
0.613475
0.629375
0.645617
0.662206
0.679149
0.696448
0.71411
0.732139
0.75054
0.769318
0.788478
0.808025
0.827963
0.848297
0.869033
0.890176
0.911729
0.933698
0.956088
0.978903
1.00215
1.02583
1.04995
1.07451
1.09953
1.12499
1.15092
1.17731
1.20416
1.23149
1.25929
1.28757
1.31634
1.34559
1.37533
1.40558
1.43632
1.46756
1.49931
1.53157
1.56435
1.59764
1.63145
1.66578
1.70063
1.73602
1.77194
1.80838
1.84537
1.88289
1.92095
1.95956
1.9987
2.03839
2.07863
2.11942
2.16076
2.20264
2.24508
2.28807
2.33162
2.37571
2.42035
2.46553
2.51125
2.55748
2.60422
2.65141
2.699
2.74689
2.79494
2.84289
2.89034
2.93664
2.98072
3.02085
3.05429
3.07654
3.08045
3.05487
2.98369
2.84617
2.62189
2.30564
1.93082
1.57842
1.33444
1.21693
1.17629
1.16487
1.16195
1.16123
1.16105
1.16101
1.161
1.161
1.161
1.161
1.161
1.161
1.161
1.161
1.161
1.161
1.161
1.161
1.161
1.161
1.161
1.161
1.161
1.161
1.161
1.161
1.161
1.161
1.161
1.161
1.161
1.161
1.161
1.161
1.161
1.161
1.161
1.161
1.161
1.161
1.161
1.161
1.161
1.161
1.161
1.161
1.161
1.161
1.161
1.161
1.161
1.161
1.161
1.161
1.161
1.161
1.161
1.161
1.161
1.161
1.161
1.161
1.161
1.161
1.161
1.161
1.161
1.161
1.161
1.161
1.161
1.161
1.161
1.161
1.161
1.161
1.161
1.161
1.161
1.161
1.161
1.161
1.161
1.161
1.161
1.161
1.161
1.161
1.161
1.161
1.161
1.161
1.161
1.161
1.161
1.161
1.161
1.161
1.161
1.161
1.161
1.161
1.161
1.161
1.161
1.161
1.161
1.161
1.161
1.161
1.161
1.161
1.161
1.161
1.161
1.161
1.161
1.161
1.161
1.161
1.161
1.161
1.161
1.161
1.161
1.161
1.161
1.161
1.161
1.161
1.161
1.161
1.161
1.161
1.161
1.161
1.161
1.161
1.161
1.161
1.161
1.161
1.161
1.161
1.161
1.161
1.161
1.161
1.161
1.161
1.161
1.161
1.161
1.161
1.161
1.161
1.161
1.161
)
;

boundaryField
{
    wedge0
    {
        type            wedge;
    }
    wedge1
    {
        type            wedge;
    }
    wedge2
    {
        type            wedge;
    }
    wedge3
    {
        type            wedge;
    }
    outlet
    {
        type            zeroGradient;
    }
    defaultFaces
    {
        type            empty;
    }
}


// ************************************************************************* //
