/*--------------------------------*- C++ -*----------------------------------*\
| =========                 |                                                 |
| \\      /  F ield         | OpenFOAM: The Open Source CFD Toolbox           |
|  \\    /   O peration     | Version:  2312                                  |
|   \\  /    A nd           | Website:  www.openfoam.com                      |
|    \\/     M anipulation  |                                                 |
\*---------------------------------------------------------------------------*/
FoamFile
{
    version     2.0;
    format      ascii;
    arch        "LSB;label=32;scalar=64";
    class       volScalarField;
    location    "0.0002";
    object      T;
}
// * * * * * * * * * * * * * * * * * * * * * * * * * * * * * * * * * * * * * //

dimensions      [0 0 0 1 0 0 0];

internalField   nonuniform List<scalar> 
500
(
143401
143381
143330
143251
143144
143010
142848
142659
142444
142201
141932
141637
141315
140967
140593
140194
139769
139320
138845
138346
137823
137276
136705
136111
135494
134854
134192
133509
132803
132077
131331
130564
129777
128971
128146
127302
126441
125562
124666
123753
122825
121880
120921
119947
118959
117958
116943
115916
114876
113826
112764
111691
110609
109517
108417
107307
106190
105066
103935
102797
101653
100504
99350.7
98192.6
97030.6
95865.2
94696.9
93526.2
92353.5
91179.4
90004.2
88828.5
87652.7
86477.2
85302.5
84128.9
82957
81787.1
80619.6
79455
78293.6
77135.8
75982
74832.5
73687.7
72547.9
71413.6
70284.9
69162.3
68046.1
66936.4
65833.7
64738.3
63650.3
62570.1
61498
60434.1
59378.7
58332
57294.3
56265.7
55246.5
54236.9
53237
52247
51267
50297.3
49338
48389.2
47451
46523.6
45607.1
44701.5
43807
42923.6
42051.5
41190.7
40341.3
39503.2
38676.7
37861.7
37058.2
36266.3
35486
34717.2
33960.1
33214.6
32480.7
31758.4
31047.7
30348.5
29660.8
28984.6
28319.8
27666.5
27024.4
26393.7
25774.2
25165.8
24568.5
23982.2
23406.9
22842.4
22288.6
21745.6
21213.1
20691.1
20179.5
19678.2
19187
18706
18234.9
17773.6
17322.1
16880.2
16447.8
16024.7
15611
15206.3
14810.7
14424
14046
13676.6
13315.8
12963.3
12619
12282.9
11954.7
11634.4
11321.8
11016.8
10719.3
10429
10146
9870.02
9600.96
9338.71
9083.13
8834.08
8591.45
8355.11
8124.92
7900.77
7682.52
7470.06
7263.27
7062.01
6866.18
6675.65
6490.31
6310.03
6134.71
5964.23
5798.47
5637.34
5480.71
5328.49
5180.56
5036.83
4897.18
4761.53
4629.76
4501.78
4377.5
4256.82
4139.65
4025.9
3915.47
3808.29
3704.26
3603.3
3505.34
3410.28
3318.05
3228.57
3141.77
3057.57
2975.9
2896.69
2819.88
2745.38
2673.14
2603.1
2535.18
2469.34
2405.5
2343.61
2283.62
2225.47
2169.11
2114.47
2061.52
2010.2
1960.47
1912.27
1865.56
1820.3
1776.44
1733.94
1692.77
1652.87
1614.22
1576.77
1540.49
1505.35
1471.3
1438.32
1406.37
1375.42
1345.45
1316.41
1288.3
1261.06
1234.69
1209.15
1184.42
1160.47
1137.28
1114.83
1093.1
1072.06
1051.69
1031.97
1012.89
994.423
976.552
959.258
942.526
926.339
910.681
895.537
880.891
866.729
853.037
839.801
827.009
814.648
802.705
791.169
780.028
769.271
758.888
748.867
739.2
729.877
720.887
712.223
703.875
695.834
688.094
680.645
673.48
666.592
659.973
653.617
647.516
641.665
636.057
630.685
625.544
620.628
615.931
611.447
607.172
603.101
599.227
595.547
592.055
588.747
585.618
582.664
579.88
577.262
574.807
572.508
570.363
568.367
566.516
564.805
563.23
561.785
560.463
559.258
558.158
557.15
556.215
555.322
554.426
553.456
552.3
550.771
548.569
545.204
539.889
531.338
517.514
495.495
462.015
416.113
364.967
325.563
307.248
301.763
300.418
300.1
300.024
300.006
300.001
300
300
300
300
300
300
300
300
300
300
300
300
300
300
300
300
300
300
300
300
300
300
300
300
300
300
300
300
300
300
300
300
300
300
300
300
300
300
300
300
300
300
300
300
300
300
300
300
300
300
300
300
300
300
300
300
300
300
300
300
300
300
300
300
300
300
300
300
300
300
300
300
300
300
300
300
300
300
300
300
300
300
300
300
300
300
300
300
300
300
300
300
300
300
300
300
300
300
300
300
300
300
300
300
300
300
300
300
300
300
300
300
300
300
300
300
300
300
300
300
300
300
300
300
300
300
300
300
300
300
300
300
300
300
300
300
300
300
300
300
300
300
300
300
300
300
300
300
300
300
300
300
)
;

boundaryField
{
    wedge0
    {
        type            wedge;
    }
    wedge1
    {
        type            wedge;
    }
    wedge2
    {
        type            wedge;
    }
    wedge3
    {
        type            wedge;
    }
    outlet
    {
        type            zeroGradient;
    }
    defaultFaces
    {
        type            empty;
    }
}


// ************************************************************************* //
