/*--------------------------------*- C++ -*----------------------------------*\
| =========                 |                                                 |
| \\      /  F ield         | OpenFOAM: The Open Source CFD Toolbox           |
|  \\    /   O peration     | Version:  2312                                  |
|   \\  /    A nd           | Website:  www.openfoam.com                      |
|    \\/     M anipulation  |                                                 |
\*---------------------------------------------------------------------------*/
FoamFile
{
    version     2.0;
    format      ascii;
    arch        "LSB;label=32;scalar=64";
    class       volScalarField;
    location    "0.0002";
    object      thermo:e;
}
// * * * * * * * * * * * * * * * * * * * * * * * * * * * * * * * * * * * * * //

dimensions      [0 2 -2 0 0 0 0];

internalField   nonuniform List<scalar> 
500
(
1.02919e+08
1.02904e+08
1.02868e+08
1.02811e+08
1.02735e+08
1.02638e+08
1.02522e+08
1.02387e+08
1.02232e+08
1.02058e+08
1.01865e+08
1.01653e+08
1.01422e+08
1.01172e+08
1.00904e+08
1.00617e+08
1.00313e+08
9.99898e+07
9.96493e+07
9.92911e+07
9.89155e+07
9.85228e+07
9.81131e+07
9.76867e+07
9.72438e+07
9.67848e+07
9.63098e+07
9.58191e+07
9.53131e+07
9.47919e+07
9.4256e+07
9.37055e+07
9.31408e+07
9.25623e+07
9.19702e+07
9.13648e+07
9.07466e+07
9.01158e+07
8.94727e+07
8.88177e+07
8.81513e+07
8.74736e+07
8.67851e+07
8.60861e+07
8.5377e+07
8.46581e+07
8.39299e+07
8.31927e+07
8.24468e+07
8.16926e+07
8.09305e+07
8.01609e+07
7.93841e+07
7.86006e+07
7.78106e+07
7.70146e+07
7.62129e+07
7.54058e+07
7.45939e+07
7.37774e+07
7.29566e+07
7.21321e+07
7.1304e+07
7.04728e+07
6.96388e+07
6.88024e+07
6.79639e+07
6.71237e+07
6.62821e+07
6.54394e+07
6.4596e+07
6.37522e+07
6.29083e+07
6.20647e+07
6.12216e+07
6.03793e+07
5.95382e+07
5.86986e+07
5.78607e+07
5.70249e+07
5.61913e+07
5.53604e+07
5.45323e+07
5.37073e+07
5.28857e+07
5.20677e+07
5.12535e+07
5.04435e+07
4.96378e+07
4.88367e+07
4.80403e+07
4.72489e+07
4.64627e+07
4.56818e+07
4.49066e+07
4.41371e+07
4.33735e+07
4.26161e+07
4.18649e+07
4.11201e+07
4.03819e+07
3.96504e+07
3.89258e+07
3.82082e+07
3.74976e+07
3.67944e+07
3.60984e+07
3.54099e+07
3.47289e+07
3.40556e+07
3.339e+07
3.27322e+07
3.20823e+07
3.14403e+07
3.08063e+07
3.01804e+07
2.95626e+07
2.89529e+07
2.83515e+07
2.77583e+07
2.71733e+07
2.65967e+07
2.60283e+07
2.54683e+07
2.49166e+07
2.43732e+07
2.38381e+07
2.33114e+07
2.2793e+07
2.22829e+07
2.17811e+07
2.12876e+07
2.08023e+07
2.03252e+07
1.98562e+07
1.93954e+07
1.89428e+07
1.84981e+07
1.80615e+07
1.76328e+07
1.7212e+07
1.67991e+07
1.6394e+07
1.59966e+07
1.56068e+07
1.52246e+07
1.485e+07
1.44828e+07
1.4123e+07
1.37705e+07
1.34253e+07
1.30872e+07
1.27561e+07
1.2432e+07
1.21149e+07
1.18046e+07
1.15009e+07
1.1204e+07
1.09136e+07
1.06296e+07
1.03521e+07
1.00808e+07
9.8157e+06
9.55672e+06
9.30374e+06
9.05667e+06
8.81543e+06
8.57991e+06
8.35003e+06
8.12568e+06
7.90678e+06
7.69322e+06
7.48492e+06
7.28178e+06
7.08371e+06
6.89061e+06
6.70239e+06
6.51896e+06
6.34022e+06
6.16608e+06
5.99646e+06
5.83126e+06
5.67038e+06
5.51375e+06
5.36127e+06
5.21285e+06
5.06841e+06
4.92786e+06
4.79112e+06
4.65809e+06
4.52871e+06
4.40288e+06
4.28053e+06
4.16156e+06
4.04592e+06
3.93351e+06
3.82426e+06
3.71809e+06
3.61493e+06
3.51471e+06
3.41735e+06
3.32278e+06
3.23093e+06
3.14173e+06
3.05512e+06
2.97103e+06
2.88939e+06
2.81013e+06
2.73321e+06
2.65855e+06
2.58609e+06
2.51578e+06
2.44756e+06
2.38136e+06
2.31714e+06
2.25485e+06
2.19442e+06
2.13581e+06
2.07896e+06
2.02382e+06
1.97036e+06
1.91851e+06
1.86824e+06
1.8195e+06
1.77224e+06
1.72643e+06
1.68201e+06
1.63896e+06
1.59722e+06
1.55677e+06
1.51756e+06
1.47955e+06
1.44272e+06
1.40703e+06
1.37243e+06
1.33891e+06
1.30643e+06
1.27495e+06
1.24445e+06
1.2149e+06
1.18627e+06
1.15853e+06
1.13165e+06
1.10561e+06
1.08039e+06
1.05595e+06
1.03228e+06
1.00935e+06
987140
965627
944791
924610
905065
886138
867808
850058
832871
816229
800117
784517
769416
754798
740648
726952
713698
700871
688460
676451
664834
653596
642727
632215
622051
612224
602725
593544
584673
576101
567822
559826
552106
544654
537462
530524
523833
517381
511162
505171
499400
493845
488499
483357
478413
473662
469101
464722
460523
456498
452643
448953
445424
442053
438836
435768
432845
430065
427424
424918
422544
420298
418178
416180
414301
412539
410889
409350
407917
406589
405361
404230
403193
402244
401379
400590
399867
399196
398555
397911
397215
396386
395288
393708
391293
387478
381341
371420
355617
331588
298644
261937
233656
220512
216575
215610
215381
215327
215314
215311
215310
215310
215310
215310
215310
215310
215310
215310
215310
215310
215310
215310
215310
215310
215310
215310
215310
215310
215310
215310
215310
215310
215310
215310
215310
215310
215310
215310
215310
215310
215310
215310
215310
215310
215310
215310
215310
215310
215310
215310
215310
215310
215310
215310
215310
215310
215310
215310
215310
215310
215310
215310
215310
215310
215310
215310
215310
215310
215310
215310
215310
215310
215310
215310
215310
215310
215310
215310
215310
215310
215310
215310
215310
215310
215310
215310
215310
215310
215310
215310
215310
215310
215310
215310
215310
215310
215310
215310
215310
215310
215310
215310
215310
215310
215310
215310
215310
215310
215310
215310
215310
215310
215310
215310
215310
215310
215310
215310
215310
215310
215310
215310
215310
215310
215310
215310
215310
215310
215310
215310
215310
215310
215310
215310
215310
215310
215310
215310
215310
215310
215310
215310
215310
215310
215310
215310
215310
215310
215310
215310
215310
215310
215310
215310
215310
215310
215310
215310
215310
215310
215310
215310
)
;

boundaryField
{
    wedge0
    {
        type            wedge;
    }
    wedge1
    {
        type            wedge;
    }
    wedge2
    {
        type            wedge;
    }
    wedge3
    {
        type            wedge;
    }
    outlet
    {
        type            zeroGradient;
    }
    defaultFaces
    {
        type            empty;
    }
}


// ************************************************************************* //
