/*--------------------------------*- C++ -*----------------------------------*\
| =========                 |                                                 |
| \\      /  F ield         | OpenFOAM: The Open Source CFD Toolbox           |
|  \\    /   O peration     | Version:  2312                                  |
|   \\  /    A nd           | Website:  www.openfoam.com                      |
|    \\/     M anipulation  |                                                 |
\*---------------------------------------------------------------------------*/
FoamFile
{
    version     2.0;
    format      ascii;
    arch        "LSB;label=32;scalar=64";
    class       volVectorField;
    location    "0.0002";
    object      U;
}
// * * * * * * * * * * * * * * * * * * * * * * * * * * * * * * * * * * * * * //

dimensions      [0 1 -1 0 0 0 0];

internalField   nonuniform List<vector> 
500
(
(1.08363 -3.43568e-10 3.4733e-10)
(1.951 -3.35964e-10 3.36905e-10)
(2.91846 -3.44639e-10 3.44931e-10)
(3.94602 -3.39414e-10 3.40043e-10)
(4.99757 -3.21179e-10 3.21436e-10)
(6.06071 -3.19699e-10 3.1981e-10)
(7.13029 -3.14102e-10 3.1409e-10)
(8.20381 -3.07384e-10 3.07313e-10)
(9.27991 -2.9439e-10 2.9427e-10)
(10.3578 -2.77912e-10 2.77732e-10)
(11.437 -2.6456e-10 2.63637e-10)
(12.5171 -2.51221e-10 2.49244e-10)
(13.5979 -2.37839e-10 2.36423e-10)
(14.6794 -2.24443e-10 2.23491e-10)
(15.7613 -2.11266e-10 2.10362e-10)
(16.8435 -1.9901e-10 1.99023e-10)
(17.9261 -1.88218e-10 1.88217e-10)
(19.009 -1.82259e-10 1.82264e-10)
(20.0921 -1.75964e-10 1.75972e-10)
(21.1753 -1.73203e-10 1.7322e-10)
(22.2588 -1.71617e-10 1.71631e-10)
(23.3424 -1.69626e-10 1.69629e-10)
(24.4261 -1.67336e-10 1.67329e-10)
(25.5099 -1.654e-10 1.65389e-10)
(26.5938 -1.62536e-10 1.62527e-10)
(27.6779 -1.58872e-10 1.58866e-10)
(28.762 -1.56168e-10 1.56165e-10)
(29.8462 -1.52819e-10 1.5282e-10)
(30.9304 -1.47254e-10 1.47255e-10)
(32.0148 -1.42798e-10 1.42793e-10)
(33.0992 -1.38177e-10 1.3818e-10)
(34.1836 -1.33556e-10 1.33558e-10)
(35.2682 -1.27372e-10 1.27375e-10)
(36.3527 -1.22102e-10 1.22103e-10)
(37.4374 -1.16675e-10 1.16675e-10)
(38.522 -1.11302e-10 1.11303e-10)
(39.6068 -1.06369e-10 1.06369e-10)
(40.6915 -1.01567e-10 1.01567e-10)
(41.7764 -9.74815e-11 9.74815e-11)
(42.8612 -9.32564e-11 9.32564e-11)
(43.9462 -8.82353e-11 8.82353e-11)
(45.0311 -8.27359e-11 8.27359e-11)
(46.1161 -7.72916e-11 7.72916e-11)
(47.2011 -7.14628e-11 7.14628e-11)
(48.2862 -6.57454e-11 6.57454e-11)
(49.3714 -6.05578e-11 6.05578e-11)
(50.4565 -5.50364e-11 5.50364e-11)
(51.5417 -4.95958e-11 4.95958e-11)
(52.627 -4.38735e-11 4.38735e-11)
(53.7123 -3.88899e-11 3.88899e-11)
(54.7976 -3.36498e-11 3.36498e-11)
(55.883 -2.90779e-11 2.90779e-11)
(56.9684 -2.42532e-11 2.42532e-11)
(58.0539 -2.00284e-11 2.00284e-11)
(59.1394 -1.57169e-11 1.57169e-11)
(60.225 -1.19478e-11 1.19478e-11)
(61.3105 -8.66279e-12 8.66279e-12)
(62.3962 -5.82993e-12 5.82993e-12)
(63.4819 -2.97344e-12 2.97344e-12)
(64.5676 -2.26377e-13 2.26377e-13)
(65.6534 1.48379e-12 -1.48379e-12)
(66.7392 2.85254e-12 -2.85254e-12)
(67.8251 4.03174e-12 -4.03174e-12)
(68.911 4.90604e-12 -4.90604e-12)
(69.997 5.48774e-12 -5.48774e-12)
(71.083 5.79611e-12 -5.79611e-12)
(72.1691 6.07133e-12 -6.07133e-12)
(73.2553 6.58648e-12 -6.58648e-12)
(74.3415 6.38195e-12 -6.38195e-12)
(75.4277 6.21763e-12 -6.21763e-12)
(76.514 6.05353e-12 -6.05353e-12)
(77.6004 5.86745e-12 -5.86745e-12)
(78.6868 5.66757e-12 -5.66757e-12)
(79.7733 5.49953e-12 -5.49953e-12)
(80.8598 5.52754e-12 -5.52761e-12)
(81.9464 5.68567e-12 -5.68463e-12)
(83.0331 5.30096e-12 -5.29914e-12)
(84.1199 4.96004e-12 -4.95852e-12)
(85.2067 4.75779e-12 -4.75528e-12)
(86.2936 4.40127e-12 -4.39834e-12)
(87.3805 4.26512e-12 -4.21393e-12)
(88.4675 3.84354e-12 -3.73435e-12)
(89.5546 3.15119e-12 -2.97241e-12)
(90.6418 2.18097e-12 -1.9321e-12)
(91.7291 9.55186e-13 -6.33269e-13)
(92.8164 -3.88134e-13 6.18018e-13)
(93.9038 -1.45073e-12 1.5903e-12)
(94.9913 -2.30514e-12 2.41556e-12)
(96.0789 -2.90514e-12 2.98604e-12)
(97.1666 -3.29684e-12 3.33274e-12)
(98.2544 -3.48146e-12 3.45058e-12)
(99.3422 -3.44005e-12 3.34323e-12)
(100.43 -3.3734e-12 3.3614e-12)
(101.518 -3.16895e-12 3.17402e-12)
(102.606 -2.76308e-12 2.78407e-12)
(103.695 -2.27413e-12 2.20349e-12)
(104.783 -1.9655e-12 1.77299e-12)
(105.872 -1.53535e-12 1.53281e-12)
(106.96 -1.12389e-12 1.13845e-12)
(108.049 -7.13766e-13 7.487e-13)
(109.138 -4.80501e-13 5.36032e-13)
(110.227 -3.29319e-13 4.0063e-13)
(111.316 -9.03985e-14 1.02898e-13)
(112.405 2.06346e-13 -2.19084e-13)
(113.494 6.56826e-13 -6.93899e-13)
(114.584 1.25825e-12 -1.29413e-12)
(115.674 1.71711e-12 -1.7506e-12)
(116.763 2.32413e-12 -2.35457e-12)
(117.853 2.80038e-12 -2.82677e-12)
(118.943 3.41563e-12 -3.43968e-12)
(120.034 3.91118e-12 -3.93212e-12)
(121.124 4.29073e-12 -4.30984e-12)
(122.215 4.3106e-12 -4.32724e-12)
(123.305 4.45897e-12 -4.47276e-12)
(124.396 4.73371e-12 -4.74466e-12)
(125.487 4.68086e-12 -4.68886e-12)
(126.579 4.306e-12 -4.31136e-12)
(127.67 4.04187e-12 -4.04403e-12)
(128.762 3.88779e-12 -3.88367e-12)
(129.854 3.69895e-12 -3.6965e-12)
(130.946 3.81418e-12 -3.81328e-12)
(132.038 3.84603e-12 -3.84559e-12)
(133.131 3.60566e-12 -3.60485e-12)
(134.224 3.29271e-12 -3.29176e-12)
(135.317 3.02876e-12 -3.02831e-12)
(136.41 2.79176e-12 -2.79155e-12)
(137.504 2.47244e-12 -2.47201e-12)
(138.597 2.0694e-12 -2.06877e-12)
(139.691 1.61297e-12 -1.6127e-12)
(140.786 1.15946e-12 -1.15908e-12)
(141.88 7.64576e-13 -7.64038e-13)
(142.975 4.27159e-13 -4.26563e-13)
(144.071 1.47049e-13 -1.4675e-13)
(145.166 -7.20871e-14 7.23993e-14)
(146.262 -2.31618e-13 2.31932e-13)
(147.358 -1.96769e-13 1.96767e-13)
(148.455 -8.99124e-14 8.9911e-14)
(149.552 -1.69425e-13 1.69426e-13)
(150.649 -1.91737e-13 1.91737e-13)
(151.747 -1.90544e-13 1.90544e-13)
(152.845 -1.89751e-13 1.89751e-13)
(153.943 -1.88158e-13 1.88158e-13)
(155.042 -2.13165e-13 2.13165e-13)
(156.142 -1.85751e-13 1.85751e-13)
(157.242 -1.84178e-13 1.84178e-13)
(158.342 -1.65165e-13 1.65165e-13)
(159.443 -1.96661e-13 1.96661e-13)
(160.544 -1.82132e-13 1.82132e-13)
(161.646 -1.36804e-13 1.36987e-13)
(162.748 -4.25882e-14 4.29182e-14)
(163.851 -7.92893e-14 7.95828e-14)
(164.954 -1.51736e-13 1.52017e-13)
(166.058 -1.0023e-13 1.005e-13)
(167.163 -7.3695e-14 7.39534e-14)
(168.268 -1.69636e-13 1.6988e-13)
(169.374 -1.53094e-13 1.53177e-13)
(170.48 -1.72458e-13 1.72481e-13)
(171.588 -2.07834e-13 2.07769e-13)
(172.696 -1.72104e-13 1.71919e-13)
(173.804 -2.37423e-13 2.37372e-13)
(174.914 -2.38968e-13 2.38984e-13)
(176.024 -1.73124e-13 1.73195e-13)
(177.135 -1.69778e-13 1.69716e-13)
(178.247 -2.68908e-13 2.69108e-13)
(179.36 -1.89307e-13 1.89579e-13)
(180.473 -1.64879e-13 1.65024e-13)
(181.588 -1.64438e-13 1.6456e-13)
(182.704 -1.36004e-13 1.36275e-13)
(183.82 -1.64291e-13 1.64378e-13)
(184.938 -2.53973e-13 2.5398e-13)
(186.057 -4.1287e-13 4.12756e-13)
(187.176 -6.50019e-13 6.49795e-13)
(188.297 -7.66335e-13 7.65945e-13)
(189.42 -8.52902e-13 8.52442e-13)
(190.543 -9.0811e-13 9.07779e-13)
(191.668 -9.29557e-13 9.29139e-13)
(192.794 -9.13629e-13 9.13433e-13)
(193.921 -8.56301e-13 8.56101e-13)
(195.05 -7.51477e-13 7.51253e-13)
(196.18 -5.91007e-13 5.90787e-13)
(197.312 -4.52933e-13 4.52851e-13)
(198.445 -3.37967e-13 3.37936e-13)
(199.58 -2.47836e-13 2.47865e-13)
(200.716 -1.84659e-13 1.84632e-13)
(201.855 -1.51614e-13 1.51631e-13)
(202.995 -1.30762e-13 1.30697e-13)
(204.137 -6.88175e-14 6.86776e-14)
(205.281 -3.23333e-14 3.21078e-14)
(206.427 0 0)
(207.575 2.20252e-14 -2.20252e-14)
(208.725 5.71036e-14 -5.71036e-14)
(209.877 6.68257e-14 -6.68257e-14)
(211.032 4.61817e-14 -4.61817e-14)
(212.189 2.30528e-14 -2.30528e-14)
(213.349 2.66527e-14 -2.66527e-14)
(214.511 0 0)
(215.675 -2.98711e-14 2.9865e-14)
(216.843 -3.82495e-14 3.82918e-14)
(218.013 -2.01036e-14 2.01862e-14)
(219.186 3.17721e-14 -3.16453e-14)
(220.362 7.12407e-14 -7.10289e-14)
(221.541 9.61199e-14 -9.58012e-14)
(222.724 1.07557e-13 -1.07266e-13)
(223.91 9.79958e-14 -9.77344e-14)
(225.099 6.60573e-14 -6.58405e-14)
(226.292 4.97523e-14 -4.95356e-14)
(227.488 5.35866e-14 -5.34172e-14)
(228.689 3.54097e-14 -3.52356e-14)
(229.893 3.50641e-14 -3.48708e-14)
(231.102 1.17402e-14 -1.15609e-14)
(232.314 -2.97715e-15 3.18159e-15)
(233.531 -1.57119e-14 1.57993e-14)
(234.753 -5.30042e-14 5.30524e-14)
(235.979 -8.53906e-14 8.54529e-14)
(237.21 -1.22545e-13 1.22578e-13)
(238.446 -1.57956e-13 1.58008e-13)
(239.688 -1.51898e-13 1.51961e-13)
(240.934 -1.2645e-13 1.26495e-13)
(242.186 -1.0721e-13 1.07249e-13)
(243.444 -9.62881e-14 9.62921e-14)
(244.708 -9.18104e-14 9.18124e-14)
(245.978 -8.73599e-14 8.73442e-14)
(247.254 -8.33789e-14 8.33682e-14)
(248.536 -7.18391e-14 7.18391e-14)
(249.825 -3.84928e-14 3.84928e-14)
(251.122 -4.99507e-14 4.99507e-14)
(252.425 -5.77384e-14 5.77384e-14)
(253.735 -8.85193e-14 8.85193e-14)
(255.053 -9.21274e-14 9.21274e-14)
(256.379 -1.16891e-13 1.16891e-13)
(257.713 -1.46593e-13 1.46593e-13)
(259.056 -1.5445e-13 1.5445e-13)
(260.406 -1.6007e-13 1.6007e-13)
(261.766 -1.61268e-13 1.61268e-13)
(263.135 -1.66818e-13 1.66818e-13)
(264.513 -1.69698e-13 1.69698e-13)
(265.901 -1.67385e-13 1.67385e-13)
(267.298 -1.65392e-13 1.65392e-13)
(268.706 -1.5471e-13 1.5471e-13)
(270.124 -1.54312e-13 1.54312e-13)
(271.553 -1.72865e-13 1.72865e-13)
(272.994 -1.74892e-13 1.74892e-13)
(274.445 -1.72598e-13 1.72598e-13)
(275.909 -1.36439e-13 1.36439e-13)
(277.384 -1.08872e-13 1.08872e-13)
(278.872 -9.59507e-14 9.59507e-14)
(280.373 -1.10953e-13 1.10953e-13)
(281.887 -1.10179e-13 1.10179e-13)
(283.414 -1.01593e-13 1.01593e-13)
(284.955 -1.23779e-13 1.23779e-13)
(286.51 -1.2679e-13 1.2679e-13)
(288.08 -1.27993e-13 1.27993e-13)
(289.664 -1.25654e-13 1.25654e-13)
(291.264 -1.15575e-13 1.15575e-13)
(292.879 -1.04701e-13 1.04701e-13)
(294.511 -9.60783e-14 9.60783e-14)
(296.159 -9.19074e-14 9.19074e-14)
(297.823 -9.79304e-14 9.79304e-14)
(299.505 -8.63315e-14 8.63315e-14)
(301.204 -7.31693e-14 7.31693e-14)
(302.922 -6.00853e-14 6.00853e-14)
(304.657 -4.83575e-14 4.83575e-14)
(306.411 -3.74569e-14 3.74569e-14)
(308.185 -2.52431e-14 2.52431e-14)
(309.978 -1.09827e-14 1.09827e-14)
(311.791 2.25321e-15 -2.25321e-15)
(313.624 2.01741e-14 -2.01741e-14)
(315.478 2.82043e-14 -2.82043e-14)
(317.353 3.45582e-14 -3.45582e-14)
(319.249 3.70565e-14 -3.70565e-14)
(321.168 3.00558e-14 -3.00558e-14)
(323.108 2.34774e-14 -2.34774e-14)
(325.072 1.72926e-14 -1.72926e-14)
(327.058 1.14532e-14 -1.14532e-14)
(329.067 5.33437e-15 -5.33437e-15)
(331.101 -9.08009e-15 9.08009e-15)
(333.158 -1.24899e-14 1.24899e-14)
(335.24 -7.48854e-15 7.48854e-15)
(337.347 -2.86807e-15 2.86807e-15)
(339.478 0 4.36787e-34)
(341.635 0 7.15025e-35)
(343.818 9.28173e-16 -9.28173e-16)
(346.027 1.35996e-14 -1.35996e-14)
(348.262 1.41595e-14 -1.41595e-14)
(350.523 1.45477e-15 -1.45477e-15)
(352.811 -1.05979e-16 1.05979e-16)
(355.127 0 5.71966e-35)
(357.469 0 0)
(359.839 -1.07776e-14 1.07776e-14)
(362.236 -1.11792e-14 1.11792e-14)
(364.662 -7.32308e-15 7.32308e-15)
(367.115 1.15287e-15 -1.15287e-15)
(369.596 -7.7981e-15 7.7981e-15)
(372.105 -3.98203e-15 3.98203e-15)
(374.643 -7.43686e-16 7.43686e-16)
(377.209 6.77727e-15 -6.77727e-15)
(379.804 -1.71108e-15 1.71108e-15)
(382.426 0 3.65873e-35)
(385.078 0 0)
(387.757 0 3.35374e-35)
(390.465 -6.79093e-15 6.79093e-15)
(393.201 1.71847e-17 -1.71847e-17)
(395.965 -6.88093e-15 6.88093e-15)
(398.757 -3.96289e-15 3.96289e-15)
(401.578 2.74227e-15 -2.74227e-15)
(404.426 4.13638e-16 -4.13638e-16)
(407.301 0 2.44381e-35)
(410.204 0 0)
(413.134 -6.45565e-15 6.45565e-15)
(416.091 -1.06824e-14 1.06824e-14)
(419.075 -8.27128e-15 8.27128e-15)
(422.085 -5.98467e-15 5.98467e-15)
(425.12 -3.93931e-15 3.93931e-15)
(428.181 -1.97434e-15 1.97434e-15)
(431.266 1.45503e-15 -1.45503e-15)
(434.374 0 8.88047e-35)
(437.506 -2.17276e-18 2.17276e-18)
(440.658 -1.97401e-16 1.97401e-16)
(443.83 -2.47291e-15 2.47291e-15)
(447.017 -5.4963e-15 5.4963e-15)
(450.217 -8.35134e-15 8.35134e-15)
(453.421 -1.17073e-14 1.17073e-14)
(456.621 -1.41817e-14 1.41817e-14)
(459.801 -1.71247e-14 1.71247e-14)
(462.937 -2.01726e-14 2.01726e-14)
(465.993 -2.06359e-14 2.06359e-14)
(468.91 -1.83962e-14 1.83962e-14)
(471.593 -1.60168e-14 1.60168e-14)
(473.895 -1.08451e-14 1.08451e-14)
(475.573 -8.27183e-15 8.27183e-15)
(476.232 -5.83487e-15 5.83487e-15)
(475.237 -4.03918e-15 4.03918e-15)
(471.554 -3.51709e-15 3.51709e-15)
(463.527 -5.93944e-15 5.93944e-15)
(448.525 -8.58695e-15 8.58695e-15)
(422.566 -7.31755e-15 7.31755e-15)
(380.243 -5.89894e-15 5.89894e-15)
(316.028 -5.18694e-15 5.18694e-15)
(229.183 -3.47454e-15 3.47454e-15)
(133.013 -1.22414e-15 1.22414e-15)
(56.625 -2.95683e-16 2.95683e-16)
(17.8436 -1.9499e-15 1.9499e-15)
(4.72505 0 0)
(1.17297 0 0)
(0.285041 1.90481e-15 -1.90481e-15)
(0.0686288 4.7799e-18 -4.7799e-18)
(0.0164214 1.88651e-15 -1.88651e-15)
(0.003908 0 0)
(0.000925209 -3.0966e-15 3.0966e-15)
(0.000217924 -2.46338e-15 2.46338e-15)
(5.10708e-05 -5.52175e-15 5.52175e-15)
(1.19087e-05 -4.89522e-15 4.89522e-15)
(2.76314e-06 -6.18836e-16 6.18836e-16)
(6.37971e-07 0 0)
(1.46578e-07 0 0)
(3.35108e-08 1.78892e-15 -1.78892e-15)
(7.61983e-09 0 0)
(1.72048e-09 -4.24303e-15 4.24303e-15)
(3.84938e-10 -4.93303e-15 4.93303e-15)
(8.23385e-11 -2.11276e-15 2.11276e-15)
(7.31718e-12 -2.7912e-15 2.7912e-15)
(-1.37596e-11 0 0)
(-1.05473e-11 0 0)
(9.27489e-12 -1.71208e-15 1.71208e-15)
(1.50689e-11 5.66541e-19 -5.66541e-19)
(1.66623e-11 -1.6917e-15 1.6917e-15)
(2.13996e-11 0 0)
(1.73048e-12 1.6742e-15 -1.6742e-15)
(-2.10615e-11 0 0)
(-2.08539e-11 0 0)
(-1.42625e-11 -7.97286e-16 7.97286e-16)
(-1.83394e-11 -4.8766e-15 4.8766e-15)
(-2.14912e-11 -5.66711e-15 5.66711e-15)
(-2.46159e-11 -9.70045e-15 9.70045e-15)
(-2.50448e-11 -1.048e-14 1.048e-14)
(-2.91362e-11 -8.0386e-15 8.0386e-15)
(-3.21793e-11 -2.41559e-15 2.41559e-15)
(-2.28123e-11 0 0)
(-6.45833e-12 0 0)
(7.36784e-12 1.57125e-15 -1.57125e-15)
(5.25407e-13 2.71733e-18 -2.71733e-18)
(-1.82026e-11 1.55472e-15 -1.55472e-15)
(-2.3509e-11 0 0)
(-1.4119e-11 0 0)
(-9.58365e-12 -1.52756e-15 1.52756e-15)
(-2.30517e-11 0 0)
(-3.07806e-11 0 0)
(-1.65291e-11 0 0)
(7.70339e-13 2.99511e-15 -2.99511e-15)
(5.14154e-12 2.98913e-15 -2.98913e-15)
(8.2168e-12 8.73602e-18 -8.73602e-18)
(1.80059e-11 0 0)
(1.16832e-11 0 0)
(1.30757e-12 1.45873e-15 -1.45873e-15)
(-2.20705e-12 0 0)
(8.74028e-12 0 0)
(2.42798e-11 0 0)
(3.31516e-11 0 0)
(3.19703e-11 0 0)
(2.01615e-11 0 0)
(9.35454e-12 0 0)
(4.59398e-12 0 0)
(1.80926e-11 5.96142e-16 -5.96142e-16)
(3.85151e-11 3.97407e-15 -3.97407e-15)
(3.6296e-11 1.01029e-14 -1.01029e-14)
(1.91491e-11 1.34448e-14 -1.34448e-14)
(9.04217e-12 1.40274e-14 -1.40274e-14)
(2.13143e-12 6.41929e-15 -6.41929e-15)
(-8.68889e-12 1.56298e-15 -1.56298e-15)
(-1.58134e-11 -5.69004e-16 5.69004e-16)
(-1.94996e-11 0 0)
(-4.06046e-12 0 0)
(9.68202e-12 0 0)
(1.85277e-12 0 0)
(1.10966e-11 0 0)
(1.96761e-11 0 0)
(1.58713e-11 0 0)
(4.0894e-12 0 0)
(3.49344e-12 -8.63474e-16 8.63474e-16)
(2.5592e-11 8.53841e-16 -8.53841e-16)
(3.88876e-11 0 0)
(4.14311e-11 0 0)
(2.30535e-11 -1.26744e-15 1.26744e-15)
(1.08256e-11 -4.35249e-18 4.35249e-18)
(8.33553e-12 -1.25887e-15 1.25887e-15)
(-4.01321e-12 -4.07145e-18 4.07145e-18)
(-1.2873e-11 -1.2449e-15 1.2449e-15)
(-1.52014e-11 0 0)
(-1.24426e-11 -8.22055e-16 8.22055e-16)
(-1.54211e-11 8.16186e-16 -8.16186e-16)
(-1.25165e-11 0 0)
(-3.04888e-11 1.21605e-15 -1.21605e-15)
(-3.47219e-11 1.71977e-18 -1.71977e-18)
(-1.58515e-11 1.20388e-15 -1.20388e-15)
(8.31874e-12 0 0)
(3.02073e-11 7.97402e-16 -7.97402e-16)
(3.84641e-11 -7.87425e-16 7.87425e-16)
(2.85913e-11 0 0)
(6.33928e-12 -9.22231e-16 9.22231e-16)
(-4.23853e-12 -4.1856e-15 4.1856e-15)
(-7.12472e-12 -9.76727e-15 9.76727e-15)
(-1.40365e-11 -8.35235e-15 8.35235e-15)
(-2.18409e-11 0 0)
(-2.94249e-11 8.27223e-15 -8.27223e-15)
(-1.93234e-11 9.62977e-15 -9.62977e-15)
(-5.1554e-12 4.13094e-15 -4.13094e-15)
(-6.57407e-12 9.27119e-16 -9.27119e-16)
(1.74454e-11 0 0)
(4.74456e-11 9.54766e-16 -9.54766e-16)
(4.99067e-11 4.14545e-15 -4.14545e-15)
(2.85801e-11 6.24716e-16 -6.24716e-16)
(2.68434e-11 -1.86578e-15 1.86578e-15)
(3.23741e-11 -6.55786e-15 6.55786e-15)
(2.31771e-11 -4.62021e-15 4.62021e-15)
(1.70219e-11 -4.88407e-15 4.88407e-15)
(1.02466e-11 -7.32921e-15 7.32921e-15)
(7.51193e-12 -1.19373e-14 1.19373e-14)
(3.08514e-12 -1.86892e-14 1.86892e-14)
(-1.69348e-12 -2.70979e-14 2.70979e-14)
(-1.2428e-11 -2.95468e-14 2.95468e-14)
(-2.29274e-11 -2.94792e-14 2.94792e-14)
(-2.45239e-11 -2.65634e-14 2.65634e-14)
(-2.91875e-11 -1.73069e-14 1.73069e-14)
(-2.24694e-11 -9.80134e-15 9.80134e-15)
(-8.33071e-12 -4.42715e-15 4.42715e-15)
(-7.21113e-12 -1.16634e-15 1.16634e-15)
(4.75715e-12 0 0)
(2.47268e-11 0 0)
(1.03117e-11 0 0)
(-5.44772e-12 0 0)
(-9.56459e-12 0 0)
(-6.05653e-13 6.73757e-16 -6.73757e-16)
(1.21013e-11 3.28882e-15 -3.28882e-15)
(-4.0304e-12 -1.70447e-16 1.70447e-16)
(-2.44716e-11 -5.62363e-15 5.62363e-15)
(-1.77355e-11 -5.04451e-15 5.04451e-15)
(1.71535e-12 -6.46036e-15 6.46036e-15)
(1.04678e-11 -1.91121e-15 1.91121e-15)
(4.58602e-12 6.41744e-16 -6.41744e-16)
(-1.43458e-11 3.70496e-15 -3.70496e-15)
(-3.30064e-11 8.70948e-16 -8.70948e-16)
(-3.19115e-11 0 0)
(-1.54246e-11 0 0)
(-2.2841e-11 -3.55736e-16 3.55736e-16)
(-2.73819e-11 -2.63909e-15 2.63909e-15)
(-5.75029e-12 -6.83274e-15 6.83274e-15)
(1.22281e-11 -5.26861e-15 5.26861e-15)
(1.73287e-11 -9.42753e-15 9.42753e-15)
(2.09612e-12 -1.54674e-14 1.54674e-14)
(-1.72174e-11 -2.33275e-14 2.33275e-14)
(-2.21677e-11 -2.55074e-14 2.55074e-14)
(-1.99432e-11 -2.36739e-14 2.36739e-14)
(-1.05806e-11 -1.6258e-14 1.6258e-14)
(5.14328e-12 -1.06812e-14 1.06812e-14)
(1.72715e-11 -6.97901e-15 6.97901e-15)
(3.29914e-11 -5.13632e-15 5.13632e-15)
(4.05804e-11 -5.13813e-15 5.13813e-15)
(3.78673e-11 -6.96986e-15 6.96986e-15)
(2.19733e-11 -3.32505e-15 3.32505e-15)
(4.9468e-12 -1.50961e-15 1.50961e-15)
)
;

boundaryField
{
    wedge0
    {
        type            wedge;
    }
    wedge1
    {
        type            wedge;
    }
    wedge2
    {
        type            wedge;
    }
    wedge3
    {
        type            wedge;
    }
    outlet
    {
        type            zeroGradient;
    }
    defaultFaces
    {
        type            empty;
    }
}


// ************************************************************************* //
