/*--------------------------------*- C++ -*----------------------------------*\
| =========                 |                                                 |
| \\      /  F ield         | OpenFOAM: The Open Source CFD Toolbox           |
|  \\    /   O peration     | Version:  2312                                  |
|   \\  /    A nd           | Website:  www.openfoam.com                      |
|    \\/     M anipulation  |                                                 |
\*---------------------------------------------------------------------------*/
FoamFile
{
    version     2.0;
    format      ascii;
    arch        "LSB;label=32;scalar=64";
    class       volScalarField;
    location    "0.0001";
    object      p;
}
// * * * * * * * * * * * * * * * * * * * * * * * * * * * * * * * * * * * * * //

dimensions      [1 -1 -2 0 0 0 0];

internalField   nonuniform List<scalar> 
500
(
372382
372385
372387
372388
372389
372389
372389
372390
372390
372390
372390
372389
372389
372389
372389
372389
372389
372389
372388
372388
372388
372388
372387
372387
372387
372387
372386
372386
372386
372385
372385
372385
372385
372384
372384
372384
372383
372383
372383
372383
372382
372382
372382
372381
372381
372381
372381
372380
372380
372380
372380
372379
372387
372390
372370
372377
372385
372382
372380
372380
372380
372380
372380
372381
372381
372382
372383
372383
372384
372386
372387
372388
372390
372392
372394
372396
372399
372401
372404
372408
372411
372415
372420
372424
372429
372434
372440
372446
372452
372458
372465
372472
372479
372486
372494
372502
372510
372518
372527
372536
372545
372554
372564
372574
372584
372596
372608
372622
372637
372653
372672
372692
372714
372739
372766
372795
372827
372860
372896
372933
372972
373012
373053
373096
373140
373187
373237
373290
373348
373413
373484
373562
373646
373736
373831
373930
374032
374138
374249
374365
374489
374625
374774
374936
375109
375293
375483
375680
375885
376099
376330
376583
376856
377146
377451
377765
378090
378433
378806
379207
379633
380080
380539
381017
381532
382085
382672
383284
383913
384575
385291
386054
386851
387666
388523
389450
390437
391458
392497
393619
394822
396081
397356
398713
400180
401716
403264
404927
406719
408564
410439
412494
414677
416846
419190
421719
424249
426942
429869
432778
435908
439290
442650
446431
450082
454304
458269
463005
467299
472588
477242
483079
488177
494607
500207
507305
513455
521298
528046
536716
544114
553708
561802
572405
581223
592805
602469
614978
625674
639126
651090
665583
678913
694496
709277
725946
742477
760515
779130
798797
819330
840859
863543
888038
916419
952314
977292
976326
934609
759737
346166
122679
101375
100076
100002
99997.8
99997.6
99997.6
99997.6
99997.6
99997.6
99997.6
99997.6
99997.6
99997.6
99997.6
99997.6
99997.6
99997.6
99997.6
99997.6
99997.6
99997.6
99997.6
99997.6
99997.6
99997.6
99997.6
99997.6
99997.6
99997.6
99997.6
99997.6
99997.6
99997.6
99997.6
99997.6
99997.6
99997.6
99997.6
99997.6
99997.6
99997.6
99997.6
99997.6
99997.6
99997.6
99997.6
99997.6
99997.6
99997.6
99997.6
99997.6
99997.6
99997.6
99997.6
99997.6
99997.6
99997.6
99997.6
99997.6
99997.6
99997.6
99997.6
99997.6
99997.6
99997.6
99997.6
99997.6
99997.6
99997.6
99997.6
99997.6
99997.6
99997.6
99997.6
99997.6
99997.6
99997.6
99997.6
99997.6
99997.6
99997.6
99997.6
99997.6
99997.6
99997.6
99997.6
99997.6
99997.6
99997.6
99997.6
99997.6
99997.6
99997.6
99997.6
99997.6
99997.6
99997.6
99997.6
99997.6
99997.6
99997.6
99997.6
99997.6
99997.6
99997.6
99997.6
99997.6
99997.6
99997.6
99997.6
99997.6
99997.6
99997.6
99997.6
99997.6
99997.6
99997.6
99997.6
99997.6
99997.6
99997.6
99997.6
99997.6
99997.6
99997.6
99997.6
99997.6
99997.6
99997.6
99997.6
99997.6
99997.6
99997.6
99997.6
99997.6
99997.6
99997.6
99997.6
99997.6
99997.6
99997.6
99997.6
99997.6
99997.6
99997.6
99997.6
99997.6
99997.6
99997.6
99997.6
99997.6
99997.6
99997.6
99997.6
99997.6
99997.6
99997.6
99997.6
99997.6
99997.6
99997.6
99997.6
99997.6
99997.6
99997.6
99997.6
99997.6
99997.6
99997.6
99997.6
99997.6
99997.6
99997.6
99997.6
99997.6
99997.6
99997.6
99997.6
99997.6
99997.6
99997.6
99997.6
99997.6
99997.6
99997.6
99997.6
99997.6
99997.6
99997.6
99997.6
99997.6
99997.6
99997.6
99997.6
99997.6
99997.6
99997.6
99997.6
99997.6
99997.6
99997.6
99997.6
99997.6
99997.6
99997.6
99997.6
99997.6
99997.6
99997.6
99997.6
99997.6
99997.6
99997.6
99997.6
99997.6
99997.6
99997.6
99997.6
99997.6
99997.6
99997.6
99997.6
99997.6
99997.6
99997.6
99997.6
99997.6
99997.6
99997.6
99997.6
99997.6
99997.6
99997.6
99997.6
99997.6
99997.6
99997.6
99997.6
99997.6
99997.6
99997.6
99997.6
99997.6
99997.6
99997.6
99997.6
99997.6
99997.6
)
;

boundaryField
{
    wedge0
    {
        type            wedge;
    }
    wedge1
    {
        type            wedge;
    }
    wedge2
    {
        type            wedge;
    }
    wedge3
    {
        type            wedge;
    }
    outlet
    {
        type            zeroGradient;
    }
    defaultFaces
    {
        type            empty;
    }
}


// ************************************************************************* //
