/*--------------------------------*- C++ -*----------------------------------*\
| =========                 |                                                 |
| \\      /  F ield         | OpenFOAM: The Open Source CFD Toolbox           |
|  \\    /   O peration     | Version:  2312                                  |
|   \\  /    A nd           | Website:  www.openfoam.com                      |
|    \\/     M anipulation  |                                                 |
\*---------------------------------------------------------------------------*/
FoamFile
{
    version     2.0;
    format      ascii;
    arch        "LSB;label=32;scalar=64";
    class       volScalarField;
    location    "0.0001";
    object      rho;
}
// * * * * * * * * * * * * * * * * * * * * * * * * * * * * * * * * * * * * * //

dimensions      [1 -3 0 0 0 0 0];

internalField   nonuniform List<scalar> 
500
(
0.000273673
0.000273694
0.000273732
0.000273791
0.000273878
0.000273997
0.000274154
0.000274355
0.000274603
0.000274906
0.000275269
0.000275697
0.000276197
0.000276773
0.000277433
0.000278183
0.000279028
0.000279975
0.000281032
0.000282205
0.000283503
0.000284931
0.0002865
0.000288216
0.000290091
0.000292132
0.000294351
0.000296758
0.000299365
0.000302185
0.000305231
0.000308517
0.00031206
0.000315876
0.000319984
0.000324404
0.000329157
0.000334269
0.000339764
0.000345672
0.000352024
0.000358856
0.000366206
0.000374116
0.000382634
0.000391814
0.000401713
0.000412398
0.000423943
0.000436431
0.000449956
0.000464625
0.000480567
0.000497908
0.000516617
0.000536576
0.000557663
0.000579864
0.000603229
0.000627824
0.000653718
0.000680987
0.000709711
0.000739975
0.000771871
0.000805496
0.000840951
0.000878347
0.0009178
0.000959433
0.00100338
0.00104978
0.00109877
0.00115053
0.00120521
0.001263
0.00132408
0.00138865
0.00145694
0.00152917
0.00160558
0.00168643
0.00177199
0.00186255
0.00195843
0.00205995
0.00216746
0.00228132
0.00240194
0.00252972
0.00266512
0.00280859
0.00296064
0.00312179
0.0032926
0.00347367
0.00366561
0.0038691
0.00408484
0.00431357
0.00455607
0.00481319
0.00508579
0.00537481
0.00568123
0.00600609
0.00635048
0.00671556
0.00710256
0.00751274
0.00794748
0.00840818
0.00889636
0.00941359
0.00996152
0.0105419
0.0111565
0.0118073
0.0124962
0.0132253
0.0139969
0.0148131
0.0156763
0.016589
0.0175538
0.0185734
0.0196505
0.020788
0.0219891
0.0232568
0.0245944
0.0260053
0.0274929
0.0290607
0.0307123
0.0324514
0.0342819
0.0362077
0.0382329
0.0403619
0.0425992
0.0449495
0.0474178
0.0500087
0.0527272
0.0555781
0.0585663
0.061697
0.0649757
0.0684083
0.0720013
0.0757613
0.0796946
0.083807
0.0881045
0.0925928
0.0972787
0.10217
0.107276
0.112605
0.118163
0.123957
0.129993
0.136281
0.142833
0.149659
0.156767
0.164165
0.17186
0.179867
0.188202
0.196876
0.205897
0.215271
0.225019
0.235165
0.245719
0.256687
0.268076
0.279929
0.292262
0.305082
0.318388
0.332229
0.346635
0.36161
0.377143
0.39331
0.410137
0.42761
0.445736
0.464625
0.484278
0.504621
0.525813
0.547882
0.570724
0.594503
0.619282
0.644899
0.671589
0.699396
0.728179
0.758242
0.789295
0.821795
0.855309
0.890477
0.926635
0.964683
1.00365
1.04475
1.08673
1.13116
1.17644
1.22451
1.27333
1.32535
1.37798
1.4343
1.49102
1.55201
1.61306
1.6791
1.74461
1.81583
1.88627
1.96274
2.03867
2.12055
2.20252
2.29014
2.37844
2.47207
2.56696
2.66672
2.76869
2.87532
2.98539
3.09959
3.21762
3.33968
3.46605
3.59814
3.74168
3.91001
4.04057
4.09085
4.03233
3.55217
2.14117
1.2874
1.17094
1.16162
1.16104
1.161
1.161
1.161
1.161
1.161
1.161
1.161
1.161
1.161
1.161
1.161
1.161
1.161
1.161
1.161
1.161
1.161
1.161
1.161
1.161
1.161
1.161
1.161
1.161
1.161
1.161
1.161
1.161
1.161
1.161
1.161
1.161
1.161
1.161
1.161
1.161
1.161
1.161
1.161
1.161
1.161
1.161
1.161
1.161
1.161
1.161
1.161
1.161
1.161
1.161
1.161
1.161
1.161
1.161
1.161
1.161
1.161
1.161
1.161
1.161
1.161
1.161
1.161
1.161
1.161
1.161
1.161
1.161
1.161
1.161
1.161
1.161
1.161
1.161
1.161
1.161
1.161
1.161
1.161
1.161
1.161
1.161
1.161
1.161
1.161
1.161
1.161
1.161
1.161
1.161
1.161
1.161
1.161
1.161
1.161
1.161
1.161
1.161
1.161
1.161
1.161
1.161
1.161
1.161
1.161
1.161
1.161
1.161
1.161
1.161
1.161
1.161
1.161
1.161
1.161
1.161
1.161
1.161
1.161
1.161
1.161
1.161
1.161
1.161
1.161
1.161
1.161
1.161
1.161
1.161
1.161
1.161
1.161
1.161
1.161
1.161
1.161
1.161
1.161
1.161
1.161
1.161
1.161
1.161
1.161
1.161
1.161
1.161
1.161
1.161
1.161
1.161
1.161
1.161
1.161
1.161
1.161
1.161
1.161
1.161
1.161
1.161
1.161
1.161
1.161
1.161
1.161
1.161
1.161
1.161
1.161
1.161
1.161
1.161
1.161
1.161
1.161
1.161
1.161
1.161
1.161
1.161
1.161
1.161
1.161
1.161
1.161
1.161
1.161
1.161
1.161
1.161
1.161
1.161
1.161
1.161
1.161
1.161
1.161
1.161
1.161
1.161
1.161
1.161
1.161
1.161
1.161
1.161
1.161
1.161
1.161
1.161
1.161
1.161
1.161
1.161
1.161
1.161
1.161
1.161
1.161
1.161
1.161
1.161
1.161
1.161
1.161
1.161
1.161
1.161
1.161
1.161
1.161
1.161
1.161
1.161
1.161
1.161
1.161
1.161
1.161
1.161
1.161
1.161
1.161
)
;

boundaryField
{
    wedge0
    {
        type            wedge;
    }
    wedge1
    {
        type            wedge;
    }
    wedge2
    {
        type            wedge;
    }
    wedge3
    {
        type            wedge;
    }
    outlet
    {
        type            zeroGradient;
    }
    defaultFaces
    {
        type            empty;
    }
}


// ************************************************************************* //
