/*--------------------------------*- C++ -*----------------------------------*\
| =========                 |                                                 |
| \\      /  F ield         | OpenFOAM: The Open Source CFD Toolbox           |
|  \\    /   O peration     | Version:  2312                                  |
|   \\  /    A nd           | Website:  www.openfoam.com                      |
|    \\/     M anipulation  |                                                 |
\*---------------------------------------------------------------------------*/
FoamFile
{
    version     2.0;
    format      ascii;
    arch        "LSB;label=32;scalar=64";
    class       volScalarField;
    location    "0.0001";
    object      T;
}
// * * * * * * * * * * * * * * * * * * * * * * * * * * * * * * * * * * * * * //

dimensions      [0 0 0 1 0 0 0];

internalField   nonuniform List<scalar> 
500
(
4.73936e+06
4.73905e+06
4.73842e+06
4.7374e+06
4.7359e+06
4.73385e+06
4.73114e+06
4.72769e+06
4.72341e+06
4.7182e+06
4.71199e+06
4.70467e+06
4.69616e+06
4.68637e+06
4.67522e+06
4.66263e+06
4.6485e+06
4.63277e+06
4.61534e+06
4.59615e+06
4.57512e+06
4.55218e+06
4.52725e+06
4.50028e+06
4.4712e+06
4.43996e+06
4.40648e+06
4.37074e+06
4.33267e+06
4.29224e+06
4.2494e+06
4.20413e+06
4.1564e+06
4.10618e+06
4.05347e+06
3.99824e+06
3.94049e+06
3.88024e+06
3.81748e+06
3.75223e+06
3.68451e+06
3.61437e+06
3.54183e+06
3.46693e+06
3.38975e+06
3.31033e+06
3.22876e+06
3.1451e+06
3.05945e+06
2.97191e+06
2.88257e+06
2.79156e+06
2.69901e+06
2.60503e+06
2.51056e+06
2.41722e+06
2.32586e+06
2.2368e+06
2.15015e+06
2.06591e+06
1.98408e+06
1.90463e+06
1.82755e+06
1.75281e+06
1.68038e+06
1.61024e+06
1.54235e+06
1.47669e+06
1.41321e+06
1.35189e+06
1.29269e+06
1.23556e+06
1.18047e+06
1.12737e+06
1.07623e+06
1.02699e+06
979623
934073
890300
848255
807895
769172
732041
696455
662368
629734
598508
568644
540098
512824
486780
461923
438208
415596
394044
373512
353961
335352
317648
300812
284808
269600
255156
241442
228426
216078
204367
193264
182741
172771
163328
154387
145924
137916
130339
123173
116397
109992
103938
98217.3
92812.9
87708.3
82887.8
78336.3
74039.6
69984.2
66157
62545.7
59138.7
55924.7
52893.2
50033.9
47337.4
44794.4
42396.2
40134.7
38002.2
35991.1
34094.7
32306.3
30619.8
29029.2
27529.1
26114.1
24779.2
23519.6
22330.9
21208.9
20149.6
19149.5
18205.1
17313.2
16470.6
15674.5
14922
14210.5
13537.6
12901.2
12299.2
11729.6
11190.4
10679.9
10196.3
9738.08
9303.93
8892.46
8502.3
8132.14
7780.77
7447.23
7130.64
6829.98
6544.22
6272.43
6013.96
5768.24
5534.48
5311.85
5099.67
4897.69
4705.36
4522.01
4346.98
4180.11
4021.12
3869.39
3724.32
3585.96
3454.05
3327.95
3207.27
3092.28
2982.49
2877.23
2776.79
2681.02
2589.16
2501.37
2417.75
2337.42
2260.76
2187.72
2117.32
2050.74
1986.17
1925.51
1866.21
1811.04
1756.51
1706.33
1656.24
1610.53
1564.66
1523
1480.96
1443.01
1404.51
1369.99
1334.72
1303.38
1271.08
1242.66
1213.1
1187.38
1160.4
1137.11
1112.49
1091.34
1068.97
1049.79
1029.64
1012.29
994.229
978.529
962.412
948.179
934.056
921.267
909.019
897.629
886.928
876.965
867.787
859.642
853.082
848.332
842.452
831.275
807.306
744.96
563.115
331.91
301.551
300.075
300.004
300
300
300
300
300
300
300
300
300
300
300
300
300
300
300
300
300
300
300
300
300
300
300
300
300
300
300
300
300
300
300
300
300
300
300
300
300
300
300
300
300
300
300
300
300
300
300
300
300
300
300
300
300
300
300
300
300
300
300
300
300
300
300
300
300
300
300
300
300
300
300
300
300
300
300
300
300
300
300
300
300
300
300
300
300
300
300
300
300
300
300
300
300
300
300
300
300
300
300
300
300
300
300
300
300
300
300
300
300
300
300
300
300
300
300
300
300
300
300
300
300
300
300
300
300
300
300
300
300
300
300
300
300
300
300
300
300
300
300
300
300
300
300
300
300
300
300
300
300
300
300
300
300
300
300
300
300
300
300
300
300
300
300
300
300
300
300
300
300
300
300
300
300
300
300
300
300
300
300
300
300
300
300
300
300
300
300
300
300
300
300
300
300
300
300
300
300
300
300
300
300
300
300
300
300
300
300
300
300
300
300
300
300
300
300
300
300
300
300
300
300
300
300
300
300
300
300
300
300
300
300
300
300
300
300
300
300
300
300
300
300
300
300
300
300
)
;

boundaryField
{
    wedge0
    {
        type            wedge;
    }
    wedge1
    {
        type            wedge;
    }
    wedge2
    {
        type            wedge;
    }
    wedge3
    {
        type            wedge;
    }
    outlet
    {
        type            zeroGradient;
    }
    defaultFaces
    {
        type            empty;
    }
}


// ************************************************************************* //
