/*--------------------------------*- C++ -*----------------------------------*\
| =========                 |                                                 |
| \\      /  F ield         | OpenFOAM: The Open Source CFD Toolbox           |
|  \\    /   O peration     | Version:  2312                                  |
|   \\  /    A nd           | Website:  www.openfoam.com                      |
|    \\/     M anipulation  |                                                 |
\*---------------------------------------------------------------------------*/
FoamFile
{
    version     2.0;
    format      ascii;
    arch        "LSB;label=32;scalar=64";
    class       volScalarField;
    location    "0.0001";
    object      thermo:e;
}
// * * * * * * * * * * * * * * * * * * * * * * * * * * * * * * * * * * * * * //

dimensions      [0 2 -2 0 0 0 0];

internalField   nonuniform List<scalar> 
500
(
3.40144e+09
3.40122e+09
3.40077e+09
3.40003e+09
3.39896e+09
3.39748e+09
3.39554e+09
3.39306e+09
3.38999e+09
3.38625e+09
3.38179e+09
3.37654e+09
3.37043e+09
3.36341e+09
3.35541e+09
3.34637e+09
3.33623e+09
3.32494e+09
3.31243e+09
3.29866e+09
3.28356e+09
3.2671e+09
3.24921e+09
3.22985e+09
3.20898e+09
3.18656e+09
3.16253e+09
3.13688e+09
3.10956e+09
3.08054e+09
3.0498e+09
3.01731e+09
2.98305e+09
2.94701e+09
2.90917e+09
2.86954e+09
2.82809e+09
2.78485e+09
2.7398e+09
2.69297e+09
2.64438e+09
2.59403e+09
2.54197e+09
2.48822e+09
2.43282e+09
2.37583e+09
2.31728e+09
2.25724e+09
2.19577e+09
2.13294e+09
2.06882e+09
2.0035e+09
1.93708e+09
1.86963e+09
1.80183e+09
1.73484e+09
1.66927e+09
1.60535e+09
1.54316e+09
1.48271e+09
1.42398e+09
1.36696e+09
1.31163e+09
1.25799e+09
1.20601e+09
1.15567e+09
1.10694e+09
1.05982e+09
1.01426e+09
9.70253e+08
9.27762e+08
8.86761e+08
8.47222e+08
8.09114e+08
7.72408e+08
7.37072e+08
7.03075e+08
6.70385e+08
6.38968e+08
6.08793e+08
5.79826e+08
5.52035e+08
5.25386e+08
4.99845e+08
4.75381e+08
4.5196e+08
4.29549e+08
4.08116e+08
3.87628e+08
3.68054e+08
3.49362e+08
3.31522e+08
3.14502e+08
2.98273e+08
2.82805e+08
2.68069e+08
2.54038e+08
2.40682e+08
2.27976e+08
2.15893e+08
2.04406e+08
1.93492e+08
1.83126e+08
1.73283e+08
1.63942e+08
1.55079e+08
1.46674e+08
1.38705e+08
1.31153e+08
1.23998e+08
1.17221e+08
1.10804e+08
1.0473e+08
9.8982e+07
9.35443e+07
8.84014e+07
8.35383e+07
7.89411e+07
7.45962e+07
7.04905e+07
6.66118e+07
6.29483e+07
5.94886e+07
5.6222e+07
5.31383e+07
5.02276e+07
4.74809e+07
4.48891e+07
4.24438e+07
4.01372e+07
3.79614e+07
3.59093e+07
3.3974e+07
3.21489e+07
3.04278e+07
2.88047e+07
2.72742e+07
2.58308e+07
2.44698e+07
2.31862e+07
2.19758e+07
2.08343e+07
1.97577e+07
1.87421e+07
1.7784e+07
1.688e+07
1.60269e+07
1.52216e+07
1.44614e+07
1.37436e+07
1.30658e+07
1.24257e+07
1.1821e+07
1.12496e+07
1.07095e+07
1.01989e+07
9.71593e+06
9.25916e+06
8.82712e+06
8.41832e+06
8.03138e+06
7.66499e+06
7.31789e+06
6.98902e+06
6.67743e+06
6.38212e+06
6.1021e+06
5.83644e+06
5.58426e+06
5.34488e+06
5.11766e+06
4.90188e+06
4.69679e+06
4.50172e+06
4.31622e+06
4.13987e+06
3.9721e+06
3.81231e+06
3.66003e+06
3.51507e+06
3.37704e+06
3.24545e+06
3.11982e+06
3.00006e+06
2.88596e+06
2.77706e+06
2.67295e+06
2.57364e+06
2.47897e+06
2.38847e+06
2.30186e+06
2.21933e+06
2.14053e+06
2.06499e+06
1.99291e+06
1.92417e+06
1.85824e+06
1.79524e+06
1.73522e+06
1.67757e+06
1.62255e+06
1.57013e+06
1.5196e+06
1.47181e+06
1.42547e+06
1.38194e+06
1.33938e+06
1.29978e+06
1.26065e+06
1.22463e+06
1.18868e+06
1.15588e+06
1.12296e+06
1.09305e+06
1.06289e+06
1.03565e+06
1.00802e+06
983244
957932
935434
912252
891854
870639
852186
832819
816101
798431
783256
767198
753434
738974
726519
713558
702290
690723
680508
670372
661193
652403
644228
636548
629398
622811
616965
612257
608848
604628
596606
579404
534658
404148
238212
216423
215364
215313
215310
215310
215310
215310
215310
215310
215310
215310
215310
215310
215310
215310
215310
215310
215310
215310
215310
215310
215310
215310
215310
215310
215310
215310
215310
215310
215310
215310
215310
215310
215310
215310
215310
215310
215310
215310
215310
215310
215310
215310
215310
215310
215310
215310
215310
215310
215310
215310
215310
215310
215310
215310
215310
215310
215310
215310
215310
215310
215310
215310
215310
215310
215310
215310
215310
215310
215310
215310
215310
215310
215310
215310
215310
215310
215310
215310
215310
215310
215310
215310
215310
215310
215310
215310
215310
215310
215310
215310
215310
215310
215310
215310
215310
215310
215310
215310
215310
215310
215310
215310
215310
215310
215310
215310
215310
215310
215310
215310
215310
215310
215310
215310
215310
215310
215310
215310
215310
215310
215310
215310
215310
215310
215310
215310
215310
215310
215310
215310
215310
215310
215310
215310
215310
215310
215310
215310
215310
215310
215310
215310
215310
215310
215310
215310
215310
215310
215310
215310
215310
215310
215310
215310
215310
215310
215310
215310
215310
215310
215310
215310
215310
215310
215310
215310
215310
215310
215310
215310
215310
215310
215310
215310
215310
215310
215310
215310
215310
215310
215310
215310
215310
215310
215310
215310
215310
215310
215310
215310
215310
215310
215310
215310
215310
215310
215310
215310
215310
215310
215310
215310
215310
215310
215310
215310
215310
215310
215310
215310
215310
215310
215310
215310
215310
215310
215310
215310
215310
215310
215310
215310
215310
215310
215310
215310
215310
215310
215310
215310
215310
215310
215310
215310
215310
215310
215310
215310
215310
215310
215310
215310
215310
215310
215310
215310
215310
)
;

boundaryField
{
    wedge0
    {
        type            wedge;
    }
    wedge1
    {
        type            wedge;
    }
    wedge2
    {
        type            wedge;
    }
    wedge3
    {
        type            wedge;
    }
    outlet
    {
        type            zeroGradient;
    }
    defaultFaces
    {
        type            empty;
    }
}


// ************************************************************************* //
