/*--------------------------------*- C++ -*----------------------------------*\
| =========                 |                                                 |
| \\      /  F ield         | OpenFOAM: The Open Source CFD Toolbox           |
|  \\    /   O peration     | Version:  2312                                  |
|   \\  /    A nd           | Website:  www.openfoam.com                      |
|    \\/     M anipulation  |                                                 |
\*---------------------------------------------------------------------------*/
FoamFile
{
    version     2.0;
    format      ascii;
    arch        "LSB;label=32;scalar=64";
    class       volVectorField;
    location    "0.0001";
    object      U;
}
// * * * * * * * * * * * * * * * * * * * * * * * * * * * * * * * * * * * * * //

dimensions      [0 1 -1 0 0 0 0];

internalField   nonuniform List<vector> 
500
(
(2.10451 -1.9129e-08 1.99429e-08)
(4.2782 -1.92754e-08 2.01966e-08)
(6.70459 -1.97524e-08 2.07022e-08)
(9.18993 -2.01121e-08 2.09698e-08)
(11.6953 -1.95341e-08 2.03095e-08)
(14.2104 -1.98386e-08 2.05532e-08)
(16.7327 -1.98015e-08 2.04631e-08)
(19.2614 -1.95512e-08 2.01709e-08)
(21.796 -1.86303e-08 1.92308e-08)
(24.333 -1.71481e-08 1.77286e-08)
(26.8753 -1.57199e-08 1.62744e-08)
(29.4213 -1.41365e-08 1.46785e-08)
(31.9714 -1.24474e-08 1.297e-08)
(34.5244 -1.06304e-08 1.11392e-08)
(37.0815 -8.702e-09 9.20275e-09)
(39.643 -6.65318e-09 7.15337e-09)
(42.2093 -4.58526e-09 5.06356e-09)
(44.7821 -3.26671e-09 3.74017e-09)
(47.3618 -1.97752e-09 2.39314e-09)
(49.948 -1.30227e-09 1.66423e-09)
(52.5416 -8.60599e-10 1.18911e-09)
(55.1428 -7.64727e-10 1.0756e-09)
(57.7527 -1.00387e-09 1.28564e-09)
(60.3722 -1.53359e-09 1.81448e-09)
(63.0029 -1.81184e-09 2.08845e-09)
(65.6457 -1.85112e-09 2.12771e-09)
(68.3018 -1.98417e-09 2.21208e-09)
(70.9722 -2.28644e-09 2.49538e-09)
(73.6578 -1.92917e-09 2.12118e-09)
(76.3593 -1.78285e-09 1.9576e-09)
(79.0774 -1.83252e-09 2.00474e-09)
(81.8133 -2.08685e-09 2.24968e-09)
(84.5684 -1.82451e-09 1.97935e-09)
(87.3441 -1.67128e-09 1.75456e-09)
(90.1422 -1.5253e-09 1.57621e-09)
(92.9644 -1.48116e-09 1.48116e-09)
(95.8124 -1.38157e-09 1.38158e-09)
(98.6881 -1.30141e-09 1.30144e-09)
(101.593 -1.36149e-09 1.36149e-09)
(104.529 -1.56769e-09 1.56769e-09)
(107.499 -1.59259e-09 1.59259e-09)
(110.504 -1.42578e-09 1.42578e-09)
(113.546 -1.17643e-09 1.17643e-09)
(116.627 -1.05921e-09 1.05921e-09)
(119.751 -1.00291e-09 1.00291e-09)
(122.92 -1.07141e-09 1.07141e-09)
(126.136 -1.01106e-09 1.01106e-09)
(129.404 -1.00533e-09 1.00533e-09)
(132.727 -8.52356e-10 8.52356e-10)
(136.109 -8.29454e-10 8.29454e-10)
(139.558 -8.02256e-10 8.02256e-10)
(143.03 -7.90572e-10 7.90572e-10)
(146.468 -7.78876e-10 7.78876e-10)
(149.035 -7.72699e-10 7.72699e-10)
(149.159 -7.64232e-10 7.64232e-10)
(148.294 -7.59182e-10 7.59182e-10)
(149.201 -7.47187e-10 7.47187e-10)
(151.176 -7.21644e-10 7.21644e-10)
(153.495 -6.39893e-10 6.39893e-10)
(155.911 -3.41761e-10 3.41761e-10)
(158.356 -2.15958e-10 2.15958e-10)
(160.809 -9.82186e-11 9.82186e-11)
(163.272 -2.3246e-12 2.3246e-12)
(165.737 1.57376e-12 -1.57376e-12)
(168.202 0 5.49374e-31)
(170.672 2.32325e-11 -2.32325e-11)
(173.139 -1.34638e-11 1.34638e-11)
(175.612 1.74294e-10 -1.74294e-10)
(178.081 1.29158e-10 -1.29158e-10)
(180.556 8.47002e-11 -8.47002e-11)
(183.028 4.08771e-11 -4.08771e-11)
(185.504 9.82355e-12 -9.82355e-12)
(187.977 1.34228e-12 -1.34228e-12)
(190.455 9.5284e-12 -9.5284e-12)
(192.929 -2.05243e-11 2.05243e-11)
(195.406 5.39996e-11 -5.39996e-11)
(197.882 5.32891e-11 -5.32891e-11)
(200.358 2.81527e-11 -2.81527e-11)
(202.835 8.92591e-12 -8.92591e-12)
(205.31 1.22166e-12 -1.21835e-12)
(207.788 8.65857e-12 -8.65945e-12)
(210.263 -1.63045e-11 1.63011e-11)
(212.74 2.69379e-11 -2.69413e-11)
(215.215 3.69238e-11 -3.69235e-11)
(217.693 4.35971e-11 -4.35946e-11)
(220.169 -5.81242e-12 5.81311e-12)
(222.647 8.01346e-12 -8.01301e-12)
(225.123 -3.1087e-11 3.10878e-11)
(227.603 -2.0151e-11 2.01507e-11)
(230.08 -1.12985e-12 1.12958e-12)
(232.56 -1.87489e-11 1.87501e-11)
(235.039 -3.64323e-11 3.64228e-11)
(237.521 -1.22054e-11 1.92859e-11)
(240.001 -3.41266e-11 4.73962e-11)
(242.484 -2.84192e-11 2.84201e-11)
(244.966 -1.7075e-11 2.18768e-11)
(247.451 -1.63946e-11 2.17119e-11)
(249.935 -5.12063e-12 5.11997e-12)
(252.421 -2.12875e-11 2.12874e-11)
(254.909 -5.01904e-12 -9.01476e-12)
(257.399 -4.91053e-12 4.91108e-12)
(259.893 9.13101e-12 -9.13027e-12)
(262.391 -4.93426e-12 4.93496e-12)
(264.894 8.95913e-12 -8.9518e-12)
(267.402 -4.77864e-12 4.77809e-12)
(269.918 1.6674e-11 -1.63222e-11)
(272.44 -6.12076e-13 3.92559e-12)
(274.969 1.1986e-11 -7.8717e-12)
(277.504 4.6777e-12 -6.20553e-13)
(280.045 4.81445e-12 -4.41159e-12)
(282.588 -4.07213e-12 4.07215e-12)
(285.134 1.42787e-11 -1.38074e-11)
(287.679 1.03703e-11 -8.73954e-12)
(290.224 6.8277e-12 -6.78004e-12)
(292.766 9.21242e-12 -1.0772e-11)
(295.304 2.17074e-11 -1.95913e-11)
(297.841 1.85824e-11 -1.85627e-11)
(300.373 1.47004e-11 -1.49217e-11)
(302.907 1.74785e-11 -1.98465e-11)
(305.437 1.42328e-11 -1.34566e-11)
(307.968 2.9138e-12 -5.58248e-12)
(310.496 1.18711e-11 -1.10977e-11)
(313.027 8.55953e-12 -8.2354e-12)
(315.56 8.28297e-12 -8.16106e-12)
(318.1 8.10367e-12 -9.08719e-12)
(320.647 7.64415e-12 -9.95776e-12)
(323.204 7.91967e-12 -8.76036e-12)
(325.771 4.49109e-12 -5.95684e-12)
(328.345 7.02873e-12 -4.85205e-12)
(330.923 4.39717e-12 -3.27146e-12)
(333.497 6.1755e-12 -2.92369e-12)
(336.067 4.68392e-12 -4.9129e-12)
(338.633 4.36035e-12 -6.17092e-12)
(341.195 4.23818e-12 -4.49318e-12)
(343.754 4.89946e-12 -3.34375e-12)
(346.314 -5.57857e-13 1.86409e-12)
(348.875 5.47291e-13 -8.82652e-13)
(351.447 1.78744e-12 -1.83752e-12)
(354.029 1.04914e-12 -1.05287e-12)
(356.624 1.80215e-12 -2.2561e-12)
(359.228 1.18074e-12 -9.13271e-13)
(361.833 2.3785e-12 -2.8566e-12)
(364.428 3.62674e-13 -3.90012e-13)
(367.021 1.04932e-13 -5.55687e-14)
(369.612 -2.1556e-13 1.44389e-12)
(372.202 1.60208e-15 2.50801e-13)
(374.801 -3.82392e-13 3.4633e-13)
(377.413 -2.00861e-13 -1.56831e-13)
(380.039 -3.64224e-13 2.83615e-13)
(382.682 3.5007e-13 -7.38751e-13)
(385.318 3.29705e-13 -4.63341e-13)
(387.938 -2.22255e-13 -6.80684e-14)
(390.553 -1.94983e-13 1.7709e-13)
(393.172 1.75836e-13 -5.01629e-13)
(395.804 2.76161e-13 -1.95765e-13)
(398.463 -1.10757e-12 1.93181e-13)
(401.143 7.35327e-13 -3.1387e-13)
(403.831 -9.20898e-13 4.96904e-13)
(406.491 8.20475e-13 -1.48261e-13)
(409.137 -3.51801e-13 2.29612e-13)
(411.79 -2.73736e-14 1.72565e-13)
(414.467 -9.09201e-13 4.57217e-13)
(417.189 -1.90002e-13 -1.98272e-13)
(419.935 -4.81835e-13 2.59533e-13)
(422.657 -8.09613e-13 2.97605e-13)
(425.345 -6.17811e-13 1.6426e-13)
(428.04 -4.16458e-13 3.60715e-13)
(430.772 -5.13453e-13 3.133e-13)
(433.564 -5.32394e-13 4.20814e-13)
(436.372 -4.73665e-13 4.7058e-13)
(439.128 -4.26423e-13 4.21507e-13)
(441.872 -2.65937e-13 2.63615e-13)
(444.647 -5.45983e-13 5.47519e-13)
(447.499 -3.45456e-13 3.39458e-13)
(450.379 -4.98016e-13 4.78416e-13)
(453.194 -3.85867e-13 3.82669e-13)
(456.001 -6.14317e-13 6.11918e-13)
(458.863 -3.91684e-13 3.88972e-13)
(461.82 -4.94337e-13 4.82985e-13)
(464.753 -4.19718e-13 4.18732e-13)
(467.615 -3.10635e-13 3.0928e-13)
(470.52 -2.23088e-13 2.21761e-13)
(473.551 -2.02582e-13 2.01602e-13)
(476.592 -1.50698e-13 1.37099e-13)
(479.523 -1.25818e-13 1.27278e-13)
(482.506 -1.16708e-13 1.16941e-13)
(485.648 -1.65425e-13 1.6535e-13)
(488.775 -1.11654e-13 1.11654e-13)
(491.777 -1.09259e-13 1.09258e-13)
(494.893 -1.41541e-13 1.41499e-13)
(498.18 -3.28414e-14 3.2852e-14)
(501.326 -1.00308e-13 1.00255e-13)
(504.465 -5.20708e-14 5.16976e-14)
(507.814 -6.08175e-14 6.06373e-14)
(511.147 -8.22819e-14 8.20867e-14)
(514.336 -1.72958e-14 1.71224e-14)
(517.763 -4.7772e-14 4.72012e-14)
(521.251 -4.10167e-14 4.09597e-14)
(524.532 -5.04723e-14 5.03126e-14)
(528.094 -5.41791e-14 5.41735e-14)
(531.651 3.5957e-14 -3.61277e-14)
(535.104 1.93419e-14 -1.9306e-14)
(538.927 4.85219e-14 -4.86067e-14)
(542.387 2.46257e-14 -2.45395e-14)
(546.362 4.31827e-14 -4.32417e-14)
(549.865 -1.98949e-14 2.00395e-14)
(554.03 1.88584e-14 -1.90197e-14)
(557.559 -8.13876e-15 8.39422e-15)
(561.943 -7.04865e-15 6.57992e-15)
(565.484 1.51026e-14 -1.45751e-14)
(570.061 -3.43995e-15 3.43995e-15)
(573.635 1.26862e-14 -1.26862e-14)
(578.386 3.18727e-15 -3.18727e-15)
(582.03 -8.02624e-15 8.02624e-15)
(586.971 2.3425e-14 -2.3425e-14)
(590.689 -3.06136e-14 3.06136e-14)
(595.844 -2.42222e-14 2.42222e-14)
(599.631 -3.9784e-14 3.9784e-14)
(605.016 -4.20707e-14 4.20707e-14)
(608.871 -5.02167e-14 5.02167e-14)
(614.5 -1.69102e-14 1.69102e-14)
(618.415 -4.84116e-14 4.84116e-14)
(624.307 -1.49996e-14 1.49996e-14)
(628.287 -5.23214e-14 5.23214e-14)
(634.389 -6.80901e-15 6.80901e-15)
(638.441 -2.74612e-14 2.74612e-14)
(644.631 -5.59305e-15 5.59305e-15)
(648.83 -4.20899e-14 4.20899e-14)
(655.014 -3.19024e-14 3.19024e-14)
(659.486 -3.10798e-14 3.10798e-14)
(665.662 -3.83944e-14 3.83944e-14)
(670.457 -3.45535e-14 3.45535e-14)
(676.614 -2.99551e-14 2.99551e-14)
(681.704 -2.39102e-14 2.39102e-14)
(687.797 -2.39886e-14 2.39886e-14)
(693.193 -1.50079e-14 1.50079e-14)
(699.222 -1.63005e-14 1.63005e-14)
(705.063 -3.68235e-15 3.68235e-15)
(711.17 -1.84773e-14 1.84773e-14)
(717.319 4.39094e-15 -4.39094e-15)
(723.576 -2.27071e-14 2.27071e-14)
(729.917 -4.49716e-16 4.49716e-16)
(736.404 -2.77742e-14 2.77742e-14)
(743.283 -1.12053e-14 1.12053e-14)
(751.455 -2.96334e-15 2.96334e-15)
(762.593 8.98985e-15 -8.98985e-15)
(767.898 2.18967e-15 -2.18967e-15)
(764.309 5.42325e-15 -5.42325e-15)
(741.163 1.23256e-14 -1.23256e-14)
(652.281 3.64557e-15 -3.64557e-15)
(360.8 7.6943e-16 -7.6943e-16)
(54.5295 0 7.43852e-39)
(3.57365 0 0)
(0.203653 0 0)
(0.0115146 0 0)
(0.000648456 -3.0283e-15 3.0283e-15)
(3.6367e-05 -9.53837e-15 9.53837e-15)
(2.03146e-06 -1.86516e-14 1.86516e-14)
(1.13012e-07 -1.00658e-14 1.00658e-14)
(6.25275e-09 -5.41117e-15 5.41117e-15)
(3.24096e-10 -7.45986e-16 7.45986e-16)
(1.01471e-11 0 0)
(1.25055e-11 3.91409e-15 -3.91409e-15)
(4.89999e-11 9.99919e-15 -9.99919e-15)
(6.36393e-11 2.3487e-14 -2.3487e-14)
(2.43068e-11 2.28697e-14 -2.28697e-14)
(-1.23516e-11 2.33109e-14 -2.33109e-14)
(-2.25855e-11 1.65631e-14 -1.65631e-14)
(-3.23308e-11 1.10869e-14 -1.10869e-14)
(-8.07378e-12 6.05038e-15 -6.05038e-15)
(5.06507e-12 2.24757e-15 -2.24757e-15)
(1.24615e-11 0 0)
(1.36942e-12 -1.27268e-17 1.27268e-17)
(-1.98798e-11 -3.05777e-15 3.05777e-15)
(-1.38185e-11 -9.09109e-15 9.09109e-15)
(-2.56404e-11 -2.16133e-14 2.16133e-14)
(3.07055e-11 -6.32445e-15 6.32445e-15)
(3.92345e-11 -2.92675e-15 2.92675e-15)
(3.93047e-11 0 0)
(3.17269e-11 7.53668e-16 -7.53668e-16)
(4.58291e-12 4.89122e-15 -4.89122e-15)
(-1.63611e-11 8.43416e-15 -8.43416e-15)
(-1.6557e-11 9.78569e-15 -9.78569e-15)
(3.56714e-12 1.99097e-15 -1.99097e-15)
(-4.65884e-12 -6.85862e-15 6.85862e-15)
(3.68613e-12 -7.29802e-15 7.29802e-15)
(3.3651e-11 -5.64569e-15 5.64569e-15)
(2.03358e-11 -5.68557e-15 5.68557e-15)
(-3.63903e-11 -8.12329e-15 8.12329e-15)
(-7.59161e-11 -2.56393e-15 2.56393e-15)
(-8.37647e-11 0 0)
(-6.11917e-11 2.61929e-19 -2.61929e-19)
(-3.4689e-11 -1.13909e-14 1.13909e-14)
(3.19331e-11 -1.05313e-15 1.05313e-15)
(1.84085e-11 1.22327e-15 -1.22327e-15)
(1.49997e-11 3.99346e-15 -3.99346e-15)
(4.31923e-11 -2.95524e-15 2.95524e-15)
(5.79558e-11 -2.23913e-16 2.23913e-16)
(3.53192e-11 0 0)
(2.45631e-11 -3.52363e-15 3.52363e-15)
(-6.57787e-12 -7.21374e-15 7.21374e-15)
(-3.33792e-11 -4.05805e-15 4.05805e-15)
(-1.6791e-11 -6.22045e-15 6.22045e-15)
(-4.34871e-12 0 0)
(1.53924e-11 3.44406e-15 -3.44406e-15)
(3.91347e-11 0 0)
(2.55905e-11 0 0)
(9.91799e-12 -4.00242e-15 4.00242e-15)
(2.68165e-12 -1.34683e-14 1.34683e-14)
(-4.99548e-12 -1.34133e-14 1.34133e-14)
(6.58593e-11 -3.88066e-15 3.88066e-15)
(1.1155e-10 0 0)
(6.81264e-11 0 0)
(-2.2838e-11 0 0)
(-8.7009e-11 4.47153e-15 -4.47153e-15)
(-1.0643e-10 1.88186e-15 -1.88186e-15)
(-7.1341e-11 0 0)
(-6.29055e-11 -8.30412e-15 8.30412e-15)
(-5.63158e-11 -4.43967e-14 4.43967e-14)
(-2.36815e-11 -5.09658e-14 5.09658e-14)
(-3.3141e-11 -5.78734e-14 5.78734e-14)
(-7.6244e-11 -6.28596e-14 6.28596e-14)
(8.00497e-11 -4.02388e-14 4.02388e-14)
(8.76191e-11 -4.28491e-14 4.28491e-14)
(5.33591e-11 -4.04301e-14 4.04301e-14)
(-4.94478e-11 -2.21555e-14 2.21555e-14)
(-3.40725e-11 -1.05772e-14 1.05772e-14)
(-2.99263e-11 0 0)
(-2.8508e-11 5.8066e-15 -5.8066e-15)
(1.60934e-11 1.38176e-16 -1.38176e-16)
(8.01665e-12 0 0)
(-1.98003e-11 -2.64919e-16 2.64919e-16)
(-7.73389e-12 -4.62886e-15 4.62886e-15)
(3.12356e-11 -9.22468e-15 9.22468e-15)
(2.1473e-11 -9.96771e-15 9.96771e-15)
(1.20776e-11 -2.94274e-15 2.94274e-15)
(3.29318e-11 0 0)
(5.22249e-11 0 0)
(5.63876e-11 0 0)
(3.30939e-11 0 0)
(-8.22425e-12 -9.92158e-18 9.92158e-18)
(-1.9032e-11 -3.71951e-15 3.71951e-15)
(-2.61707e-11 0 0)
(-2.23957e-11 5.6143e-16 -5.6143e-16)
(4.25839e-12 4.14277e-15 -4.14277e-15)
(1.60577e-11 2.27762e-15 -2.27762e-15)
(2.27314e-11 3.41635e-15 -3.41635e-15)
(2.72883e-11 -3.86626e-15 3.86626e-15)
(-9.23781e-12 -1.0929e-14 1.0929e-14)
(-2.84809e-11 -1.42399e-14 1.42399e-14)
(-1.64293e-11 -1.60999e-14 1.60999e-14)
(-1.96035e-11 -1.42798e-14 1.42798e-14)
(-1.38965e-11 -3.57241e-15 3.57241e-15)
(4.204e-12 0 0)
(1.4103e-11 8.95263e-16 -8.95263e-16)
(-1.95999e-11 1.4815e-16 -1.4815e-16)
(-3.22257e-11 -4.01898e-15 4.01898e-15)
(-2.72451e-11 -1.68038e-14 1.68038e-14)
(-1.65473e-12 -2.03369e-14 2.03369e-14)
(2.07025e-11 -1.94652e-14 1.94652e-14)
(2.32951e-11 -1.66381e-14 1.66381e-14)
(1.8046e-11 -1.17621e-14 1.17621e-14)
(3.44347e-11 -8.66935e-15 8.66935e-15)
(3.119e-11 -8.3608e-15 8.3608e-15)
(9.29093e-12 -4.29525e-15 4.29525e-15)
(1.8978e-11 -4.13346e-15 4.13346e-15)
(1.50341e-11 -5.59123e-16 5.59123e-16)
(-2.09975e-11 3.53734e-15 -3.53734e-15)
(-3.26936e-11 0 0)
(-4.05755e-11 0 0)
(-2.9188e-11 -4.56229e-15 4.56229e-15)
(-1.45734e-11 -1.6541e-14 1.6541e-14)
(-2.01727e-11 -1.92371e-14 1.92371e-14)
(-6.01227e-13 -2.39298e-14 2.39298e-14)
(1.18457e-11 -2.53613e-14 2.53613e-14)
(1.14631e-11 -2.06471e-14 2.06471e-14)
(2.16387e-11 -9.28789e-15 9.28789e-15)
(3.19075e-11 -1.92004e-15 1.92004e-15)
(2.08924e-11 0 0)
(-3.44581e-11 3.58277e-15 -3.58277e-15)
(-4.63855e-11 1.33235e-15 -1.33235e-15)
(-4.59214e-11 2.85596e-15 -2.85596e-15)
(-2.49671e-11 1.68418e-16 -1.68418e-16)
(1.68329e-11 0 0)
(-2.73326e-11 -2.51674e-15 2.51674e-15)
(-3.18028e-11 0 0)
(-1.68364e-11 0 0)
(-2.74882e-12 1.28673e-15 -1.28673e-15)
(5.79172e-11 7.6228e-15 -7.6228e-15)
(8.84768e-11 7.88116e-15 -7.88116e-15)
(6.18542e-11 4.15892e-15 -4.15892e-15)
(4.31913e-11 1.55137e-16 -1.55137e-16)
(3.75431e-11 0 0)
(-2.86724e-11 6.00879e-15 -6.00879e-15)
(-1.13793e-11 1.87085e-16 -1.87085e-16)
(-6.08743e-12 0 0)
(-3.65433e-11 0 0)
(-2.83956e-11 0 0)
(2.84292e-11 0 0)
(5.24485e-11 0 0)
(-6.56343e-11 0 0)
(-9.52992e-11 0 0)
(1.04712e-10 1.13755e-14 -1.13755e-14)
(1.15309e-10 2.06437e-14 -2.06437e-14)
(6.9855e-11 2.88589e-14 -2.88589e-14)
(3.90453e-11 3.93861e-14 -3.93861e-14)
(2.38267e-11 3.99154e-14 -3.99154e-14)
(-4.29187e-11 1.75927e-14 -1.75927e-14)
(-7.12693e-11 7.84568e-15 -7.84568e-15)
(-7.76588e-11 5.23899e-16 -5.23899e-16)
(-7.29606e-11 0 0)
(-6.87229e-11 0 0)
(-4.16289e-11 0 0)
(-1.182e-11 0 0)
(-3.33509e-11 0 0)
(-2.60267e-11 0 0)
(2.91196e-11 0 0)
(3.36207e-11 -1.29453e-16 1.29453e-16)
(5.28316e-12 -1.2976e-15 1.2976e-15)
(-1.67646e-11 1.5413e-15 -1.5413e-15)
(-2.79585e-11 0 0)
(-2.19653e-11 -3.36165e-15 3.36165e-15)
(9.3084e-12 -7.1119e-15 7.1119e-15)
(2.75723e-11 -6.90811e-15 6.90811e-15)
(2.52092e-11 -1.15347e-14 1.15347e-14)
(-1.31035e-11 -1.13009e-14 1.13009e-14)
(-3.81602e-11 -1.44135e-14 1.44135e-14)
(4.62137e-11 -4.42672e-15 4.42672e-15)
(7.577e-11 -3.94632e-15 3.94632e-15)
(5.11784e-11 3.9052e-16 -3.9052e-16)
(2.33588e-11 1.3425e-15 -1.3425e-15)
(1.85232e-11 3.08342e-15 -3.08342e-15)
(2.33032e-11 1.52821e-15 -1.52821e-15)
(1.78774e-12 2.39107e-15 -2.39107e-15)
(-1.68655e-11 8.49637e-16 -8.49637e-16)
(7.62342e-12 7.70234e-16 -7.70234e-16)
(3.50012e-11 -1.91516e-15 1.91516e-15)
(3.73543e-11 -2.07253e-15 2.07253e-15)
(2.0013e-11 -4.02665e-15 4.02665e-15)
(-1.42655e-11 -9.69837e-15 9.69837e-15)
(-2.83123e-11 -1.4435e-14 1.4435e-14)
(-1.10139e-11 -1.21772e-14 1.21772e-14)
(-4.91326e-11 -2.98791e-15 2.98791e-15)
(-4.29504e-11 1.22446e-14 -1.22446e-14)
(-2.68103e-11 1.5404e-14 -1.5404e-14)
(-8.14274e-11 1.09053e-14 -1.09053e-14)
(-6.33806e-11 8.17886e-15 -8.17886e-15)
(5.50065e-11 7.16585e-15 -7.16585e-15)
(1.64093e-11 9.02789e-15 -9.02789e-15)
(-2.05672e-11 1.12865e-14 -1.12865e-14)
(-5.39448e-12 6.838e-15 -6.838e-15)
(1.37675e-11 1.86853e-16 -1.86853e-16)
(8.64469e-12 -6.80882e-15 6.80882e-15)
(1.17318e-11 -7.16475e-15 7.16475e-15)
(-9.00185e-13 -7.99622e-15 7.99622e-15)
(-1.48785e-11 -1.27027e-14 1.27027e-14)
(2.05429e-11 -1.81881e-14 1.81881e-14)
(1.93684e-11 -2.30853e-14 2.30853e-14)
(2.18418e-11 -2.99923e-14 2.99923e-14)
(-2.68461e-12 -3.45892e-14 3.45892e-14)
(-1.92819e-11 -3.55823e-14 3.55823e-14)
(-1.3855e-11 -3.02641e-14 3.02641e-14)
(6.33758e-13 -2.02764e-14 2.02764e-14)
(1.9543e-11 -1.33754e-14 1.33754e-14)
(1.60755e-11 -8.60344e-15 8.60344e-15)
(2.06357e-11 -2.63831e-15 2.63831e-15)
(2.67666e-11 0 0)
(2.06744e-11 0 0)
(-2.14151e-11 0 0)
(-5.42355e-11 0 0)
(-3.25076e-11 0 0)
(3.62692e-11 1.54762e-15 -1.54762e-15)
(3.12238e-11 3.01105e-15 -3.01105e-15)
(3.22617e-11 -6.20455e-15 6.20455e-15)
(3.56248e-11 -1.27495e-14 1.27495e-14)
(2.17165e-11 -1.23422e-14 1.23422e-14)
(-8.66414e-13 -1.50169e-14 1.50169e-14)
(-1.90083e-11 -9.14125e-15 9.14125e-15)
(-1.76204e-11 1.79368e-15 -1.79368e-15)
(-4.03722e-11 7.70848e-15 -7.70848e-15)
(-5.19565e-11 1.57056e-15 -1.57056e-15)
(-7.39084e-12 0 0)
(6.14478e-11 0 0)
(8.20568e-11 -8.5498e-16 8.5498e-16)
(3.59608e-11 -3.2106e-15 3.2106e-15)
(-3.82451e-11 -7.91964e-15 7.91964e-15)
(-4.43768e-11 -3.86539e-15 3.86539e-15)
(-2.4052e-11 -8.44367e-15 8.44367e-15)
(-1.19124e-11 -1.99231e-14 1.99231e-14)
(-1.74403e-11 -2.77628e-14 2.77628e-14)
(-3.31494e-11 -2.8291e-14 2.8291e-14)
(-3.68021e-11 -2.53176e-14 2.53176e-14)
(-2.04484e-11 -2.0145e-14 2.0145e-14)
(-2.79095e-11 -1.45754e-14 1.45754e-14)
(-1.88985e-12 -1.08807e-14 1.08807e-14)
(2.50934e-11 -9.04575e-15 9.04575e-15)
(2.00943e-11 -9.05566e-15 9.05566e-15)
(7.61339e-11 -1.18278e-14 1.18278e-14)
(9.71188e-11 -4.55678e-15 4.55678e-15)
(8.39995e-11 -2.74143e-15 2.74143e-15)
)
;

boundaryField
{
    wedge0
    {
        type            wedge;
    }
    wedge1
    {
        type            wedge;
    }
    wedge2
    {
        type            wedge;
    }
    wedge3
    {
        type            wedge;
    }
    outlet
    {
        type            zeroGradient;
    }
    defaultFaces
    {
        type            empty;
    }
}


// ************************************************************************* //
