/*--------------------------------*- C++ -*----------------------------------*\
| =========                 |                                                 |
| \\      /  F ield         | OpenFOAM: The Open Source CFD Toolbox           |
|  \\    /   O peration     | Version:  2312                                  |
|   \\  /    A nd           | Website:  www.openfoam.com                      |
|    \\/     M anipulation  |                                                 |
\*---------------------------------------------------------------------------*/
FoamFile
{
    version     2.0;
    format      ascii;
    arch        "LSB;label=32;scalar=64";
    class       volScalarField;
    location    "0.02";
    object      rho;
}
// * * * * * * * * * * * * * * * * * * * * * * * * * * * * * * * * * * * * * //

dimensions      [1 -3 0 0 0 0 0];

internalField   nonuniform List<scalar> 
100
(
0.861913
0.858015
0.853188
0.847947
0.841829
0.834957
0.827418
0.819396
0.811049
0.802511
0.793875
0.785207
0.776545
0.767914
0.759326
0.75079
0.742311
0.733883
0.725535
0.717192
0.709023
0.700694
0.692771
0.684426
0.676663
0.668515
0.660588
0.652911
0.644748
0.637327
0.629321
0.621816
0.614105
0.60658
0.599067
0.591632
0.58427
0.576991
0.569803
0.562713
0.555731
0.548872
0.542152
0.535587
0.529193
0.522988
0.517001
0.511262
0.505805
0.500663
0.495873
0.491474
0.487505
0.484005
0.481003
0.478504
0.476488
0.474913
0.473731
0.472887
0.472311
0.471924
0.471664
0.471498
0.471394
0.471305
0.471183
0.471074
0.471011
0.471098
0.471071
0.471067
0.470622
0.470633
0.470331
0.470969
0.470767
0.470892
0.470111
0.469588
0.4698
0.470083
0.471351
0.471258
0.471352
0.470739
0.471876
0.474413
0.479618
0.4842
0.488945
0.48874
0.489528
0.487002
0.492999
0.501602
0.524608
0.551841
0.582379
0.597546
)
;

boundaryField
{
    sides
    {
        type            zeroGradient;
    }
    empty
    {
        type            empty;
    }
}


// ************************************************************************* //
