/*--------------------------------*- C++ -*----------------------------------*\
| =========                 |                                                 |
| \\      /  F ield         | OpenFOAM: The Open Source CFD Toolbox           |
|  \\    /   O peration     | Version:  2312                                  |
|   \\  /    A nd           | Website:  www.openfoam.com                      |
|    \\/     M anipulation  |                                                 |
\*---------------------------------------------------------------------------*/
FoamFile
{
    version     2.0;
    format      ascii;
    arch        "LSB;label=32;scalar=64";
    class       volScalarField;
    location    "0.02";
    object      T;
}
// * * * * * * * * * * * * * * * * * * * * * * * * * * * * * * * * * * * * * //

dimensions      [0 0 0 1 0 0 0];

internalField   nonuniform List<scalar> 
100
(
275.76
273.899
271.289
269.155
267.161
265.437
263.901
262.518
261.238
260.023
258.848
257.696
256.555
255.422
254.286
253.17
252.008
250.955
249.668
248.848
247.167
246.949
244.456
245.178
241.791
243.11
239.634
240.459
237.907
237.658
236.041
235.129
233.903
232.791
231.648
230.515
229.383
228.253
227.129
226.013
224.906
223.809
222.724
221.655
220.605
219.579
218.581
217.613
216.681
215.794
214.959
214.185
213.48
212.85
212.297
211.827
211.446
211.154
210.941
210.787
210.683
210.621
210.593
210.577
210.57
210.575
210.631
210.655
210.722
210.57
210.745
210.448
211.187
210.388
211.693
209.732
211.909
209.355
212.556
209.971
212.56
210.101
211.374
210.374
211.531
212.266
212.695
213.535
211.757
213.778
210.663
217.98
212.648
225.928
212.931
229.181
208.025
228.024
209.799
236.608
)
;

boundaryField
{
    sides
    {
        type            zeroGradient;
    }
    empty
    {
        type            empty;
    }
}


// ************************************************************************* //
