/*--------------------------------*- C++ -*----------------------------------*\
| =========                 |                                                 |
| \\      /  F ield         | OpenFOAM: The Open Source CFD Toolbox           |
|  \\    /   O peration     | Version:  2312                                  |
|   \\  /    A nd           | Website:  www.openfoam.com                      |
|    \\/     M anipulation  |                                                 |
\*---------------------------------------------------------------------------*/
FoamFile
{
    version     2.0;
    format      ascii;
    arch        "LSB;label=32;scalar=64";
    class       volScalarField;
    location    "0.02";
    object      thermo:e;
}
// * * * * * * * * * * * * * * * * * * * * * * * * * * * * * * * * * * * * * //

dimensions      [0 2 -2 0 0 0 0];

internalField   nonuniform List<scalar> 
100
(
198327
196988
195111
193576
192142
190902
189798
188803
187882
187009
186164
185335
184514
183700
182882
182080
181244
180487
179561
178972
177763
177605
175813
176332
173896
174845
172345
172938
171103
170924
169761
169105
168223
167424
166601
165786
164972
164160
163351
162548
161752
160964
160183
159414
158659
157921
157203
156507
155837
155199
154598
154042
153535
153082
152684
152346
152072
151862
151709
151598
151523
151479
151459
151447
151442
151446
151486
151503
151551
151442
151568
151354
151885
151311
152249
150839
152405
150568
152870
151011
152873
151105
152020
151301
152133
152661
152970
153574
152296
153749
151509
156771
152936
162487
153140
164827
149612
163995
150888
170168
)
;

boundaryField
{
    sides
    {
        type            zeroGradient;
    }
    empty
    {
        type            empty;
    }
}


// ************************************************************************* //
