/*--------------------------------*- C++ -*----------------------------------*\
| =========                 |                                                 |
| \\      /  F ield         | OpenFOAM: The Open Source CFD Toolbox           |
|  \\    /   O peration     | Version:  2312                                  |
|   \\  /    A nd           | Website:  www.openfoam.com                      |
|    \\/     M anipulation  |                                                 |
\*---------------------------------------------------------------------------*/
FoamFile
{
    version     2.0;
    format      ascii;
    arch        "LSB;label=32;scalar=64";
    class       volVectorField;
    location    "0.02";
    object      U;
}
// * * * * * * * * * * * * * * * * * * * * * * * * * * * * * * * * * * * * * //

dimensions      [0 1 -1 0 0 0 0];

internalField   nonuniform List<vector> 
100
(
(72.9847 0 0)
(76.662 0 0)
(80.688 0 0)
(84.5654 0 0)
(88.5035 0 0)
(92.4563 0 0)
(96.4543 0 0)
(100.491 0 0)
(104.563 0 0)
(108.665 0 0)
(112.792 0 0)
(116.939 0 0)
(121.103 0 0)
(125.283 0 0)
(129.474 0 0)
(133.684 0 0)
(137.887 0 0)
(142.136 0 0)
(146.321 0 0)
(150.64 0 0)
(154.757 0 0)
(159.177 0 0)
(163.214 0 0)
(167.662 0 0)
(171.76 0 0)
(176.02 0 0)
(180.358 0 0)
(184.35 0 0)
(188.814 0 0)
(192.765 0 0)
(197.096 0 0)
(201.146 0 0)
(205.317 0 0)
(209.397 0 0)
(213.474 0 0)
(217.517 0 0)
(221.531 0 0)
(225.511 0 0)
(229.454 0 0)
(233.356 0 0)
(237.215 0 0)
(241.024 0 0)
(244.776 0 0)
(248.462 0 0)
(252.073 0 0)
(255.595 0 0)
(259.014 0 0)
(262.311 0 0)
(265.465 0 0)
(268.451 0 0)
(271.242 0 0)
(273.811 0 0)
(276.132 0 0)
(278.18 0 0)
(279.938 0 0)
(281.398 0 0)
(282.565 0 0)
(283.464 0 0)
(284.129 0 0)
(284.599 0 0)
(284.913 0 0)
(285.114 0 0)
(285.241 0 0)
(285.318 0 0)
(285.357 0 0)
(285.369 0 0)
(285.385 0 0)
(285.4 0 0)
(285.443 0 0)
(285.412 0 0)
(285.43 0 0)
(285.308 0 0)
(285.444 0 0)
(285.332 0 0)
(285.604 0 0)
(285.349 0 0)
(285.485 0 0)
(285.221 0 0)
(285.305 0 0)
(285.461 0 0)
(285.411 0 0)
(285.613 0 0)
(285.059 0 0)
(284.856 0 0)
(284.064 0 0)
(283.634 0 0)
(282.595 0 0)
(281.567 0 0)
(279.297 0 0)
(277.329 0 0)
(273.876 0 0)
(272.42 0 0)
(269.332 0 0)
(269.37 0 0)
(265.799 0 0)
(263.263 0 0)
(253.714 0 0)
(241.848 0 0)
(225.624 0 0)
(208.151 0 0)
)
;

boundaryField
{
    sides
    {
        type            mywaveTransmissive;
        gamma           1.4;
        value           nonuniform List<vector> 2((208.33 0 0) (71.422 0 0));
    }
    empty
    {
        type            empty;
    }
}


// ************************************************************************* //
