/*--------------------------------*- C++ -*----------------------------------*\
| =========                 |                                                 |
| \\      /  F ield         | OpenFOAM: The Open Source CFD Toolbox           |
|  \\    /   O peration     | Version:  2312                                  |
|   \\  /    A nd           | Website:  www.openfoam.com                      |
|    \\/     M anipulation  |                                                 |
\*---------------------------------------------------------------------------*/
FoamFile
{
    version     2.0;
    format      ascii;
    arch        "LSB;label=32;scalar=64";
    class       volScalarField;
    location    "6e-05";
    object      p;
}
// * * * * * * * * * * * * * * * * * * * * * * * * * * * * * * * * * * * * * //

dimensions      [1 -1 -2 0 0 0 0];

internalField   nonuniform List<scalar> 
100
(
4.63368e+07
4.63368e+07
4.63368e+07
4.63368e+07
4.63368e+07
4.63368e+07
4.63368e+07
4.63368e+07
4.63368e+07
4.63368e+07
4.63368e+07
4.63368e+07
4.63368e+07
4.63368e+07
4.63368e+07
4.63368e+07
4.63368e+07
4.63368e+07
4.63368e+07
4.63368e+07
4.63368e+07
4.63368e+07
4.6337e+07
4.63391e+07
4.63614e+07
4.6601e+07
4.91146e+07
7.05677e+07
1.6374e+08
3.43389e+08
5.25019e+08
6.34342e+08
6.72827e+08
6.77899e+08
6.75093e+08
6.72355e+08
6.70574e+08
6.69345e+08
6.68492e+08
6.67989e+08
6.67647e+08
6.67162e+08
6.66468e+08
6.65861e+08
6.65683e+08
6.6599e+08
6.66689e+08
6.69511e+08
7.09982e+08
6.77141e+08
6.68326e+08
6.67225e+08
6.67509e+08
6.68316e+08
6.69413e+08
6.70608e+08
6.71745e+08
6.72746e+08
6.73629e+08
6.74472e+08
6.7537e+08
6.76389e+08
6.77557e+08
6.78864e+08
6.80286e+08
6.81797e+08
6.83384e+08
6.85053e+08
6.86827e+08
6.88736e+08
6.90815e+08
6.93096e+08
6.95604e+08
6.98356e+08
7.01367e+08
7.04646e+08
7.08205e+08
7.12058e+08
7.16222e+08
7.20719e+08
7.2557e+08
7.308e+08
7.36429e+08
7.42479e+08
7.48966e+08
7.55903e+08
7.63296e+08
7.71149e+08
7.79456e+08
7.88201e+08
7.97359e+08
8.0689e+08
8.16737e+08
8.26827e+08
8.37073e+08
8.47369e+08
8.57598e+08
8.67623e+08
8.77255e+08
8.85804e+08
)
;

boundaryField
{
    sides
    {
        type            zeroGradient;
    }
    empty
    {
        type            empty;
    }
}


// ************************************************************************* //
