/*--------------------------------*- C++ -*----------------------------------*\
| =========                 |                                                 |
| \\      /  F ield         | OpenFOAM: The Open Source CFD Toolbox           |
|  \\    /   O peration     | Version:  2312                                  |
|   \\  /    A nd           | Website:  www.openfoam.com                      |
|    \\/     M anipulation  |                                                 |
\*---------------------------------------------------------------------------*/
FoamFile
{
    version     2.0;
    format      ascii;
    arch        "LSB;label=32;scalar=64";
    class       volScalarField;
    location    "6e-05";
    object      rho;
}
// * * * * * * * * * * * * * * * * * * * * * * * * * * * * * * * * * * * * * //

dimensions      [1 -3 0 0 0 0 0];

internalField   nonuniform List<scalar> 
100
(
1.16102
1.16102
1.16102
1.16102
1.16102
1.16102
1.16102
1.16102
1.16102
1.16102
1.16102
1.16102
1.16102
1.16102
1.16102
1.16102
1.16102
1.16102
1.16102
1.16102
1.16102
1.16102
1.16102
1.16105
1.16138
1.16459
1.19203
1.34789
1.78407
2.38622
2.82847
2.92916
2.7409
2.41244
2.04554
1.68785
1.36409
1.08671
0.858771
0.676802
0.534095
0.423246
0.337532
0.271352
0.220184
0.180456
0.149436
0.125298
0.110052
0.103713
0.102362
0.102194
0.102237
0.102361
0.102529
0.102712
0.102886
0.103039
0.103175
0.103304
0.103441
0.103597
0.103776
0.103977
0.104194
0.104426
0.104669
0.104924
0.105196
0.105488
0.105807
0.106156
0.10654
0.106962
0.107423
0.107925
0.10847
0.10906
0.109698
0.110387
0.11113
0.111931
0.112793
0.11372
0.114713
0.115776
0.116908
0.118111
0.119383
0.120723
0.122125
0.123585
0.125093
0.126639
0.128208
0.129785
0.131352
0.132887
0.134362
0.135672
)
;

boundaryField
{
    sides
    {
        type            zeroGradient;
    }
    empty
    {
        type            empty;
    }
}


// ************************************************************************* //
