/*--------------------------------*- C++ -*----------------------------------*\
| =========                 |                                                 |
| \\      /  F ield         | OpenFOAM: The Open Source CFD Toolbox           |
|  \\    /   O peration     | Version:  2312                                  |
|   \\  /    A nd           | Website:  www.openfoam.com                      |
|    \\/     M anipulation  |                                                 |
\*---------------------------------------------------------------------------*/
FoamFile
{
    version     2.0;
    format      ascii;
    arch        "LSB;label=32;scalar=64";
    class       volScalarField;
    location    "6e-05";
    object      thermo:e;
}
// * * * * * * * * * * * * * * * * * * * * * * * * * * * * * * * * * * * * * //

dimensions      [0 2 -2 0 0 0 0];

internalField   nonuniform List<scalar> 
100
(
3.76955e+16
3.76955e+16
3.76955e+16
3.76955e+16
3.76955e+16
3.76955e+16
3.76955e+16
3.76955e+16
3.76955e+16
3.76955e+16
3.76955e+16
3.76955e+16
3.76955e+16
3.76955e+16
3.76955e+16
3.76955e+16
3.76955e+16
3.76955e+16
3.76955e+16
3.76955e+16
3.76955e+16
3.76955e+16
3.76955e+16
3.76955e+16
3.76955e+16
3.76955e+16
3.76955e+16
3.76955e+16
3.76955e+16
3.76955e+16
3.76955e+16
3.76955e+16
3.76955e+16
3.76955e+16
3.76955e+16
3.76955e+16
3.76955e+16
3.76955e+16
3.76955e+16
3.76955e+16
3.76955e+16
3.76955e+16
3.76955e+16
3.76956e+16
3.79696e+16
1.04399e+18
1.0512e+21
3.26186e+23
3.42038e+25
2.10421e+27
1.89322e+29
3.1199e+29
3.2203e+29
3.2228e+29
3.22284e+29
3.22284e+29
3.22284e+29
3.22284e+29
3.22284e+29
3.22284e+29
3.22284e+29
3.22284e+29
3.22284e+29
3.22284e+29
3.22284e+29
3.22284e+29
3.22284e+29
3.22284e+29
3.22284e+29
3.22284e+29
3.22284e+29
3.22284e+29
3.22284e+29
3.22284e+29
3.22284e+29
3.22284e+29
3.22284e+29
3.22284e+29
3.22284e+29
3.22284e+29
3.22284e+29
3.22284e+29
3.22284e+29
3.22284e+29
3.22284e+29
3.22284e+29
3.22284e+29
3.22284e+29
3.22284e+29
3.22284e+29
3.22284e+29
3.22284e+29
3.22284e+29
3.22284e+29
3.22284e+29
3.22284e+29
3.22284e+29
3.22284e+29
3.22284e+29
3.22284e+29
)
;

boundaryField
{
    sides
    {
        type            zeroGradient;
    }
    empty
    {
        type            empty;
    }
}


// ************************************************************************* //
