/*--------------------------------*- C++ -*----------------------------------*\
| =========                 |                                                 |
| \\      /  F ield         | OpenFOAM: The Open Source CFD Toolbox           |
|  \\    /   O peration     | Version:  2312                                  |
|   \\  /    A nd           | Website:  www.openfoam.com                      |
|    \\/     M anipulation  |                                                 |
\*---------------------------------------------------------------------------*/
FoamFile
{
    version     2.0;
    format      ascii;
    arch        "LSB;label=32;scalar=64";
    class       volScalarField;
    location    "6e-05";
    object      thermo:e;
}
// * * * * * * * * * * * * * * * * * * * * * * * * * * * * * * * * * * * * * //

dimensions      [0 2 -2 0 0 0 0];

internalField   nonuniform List<scalar> 
100
(
5.95678e+07
5.95678e+07
5.95678e+07
5.95678e+07
5.95678e+07
5.95678e+07
5.95678e+07
5.95678e+07
5.95678e+07
5.95678e+07
5.95678e+07
5.95678e+07
5.95678e+07
5.95678e+07
5.95678e+07
5.95678e+07
5.95678e+07
5.95678e+07
5.95678e+07
5.95678e+07
5.95679e+07
5.95679e+07
5.9568e+07
5.9569e+07
5.95812e+07
5.97237e+07
6.14961e+07
7.81404e+07
1.36983e+08
2.14784e+08
2.77044e+08
3.23225e+08
3.66384e+08
4.19404e+08
4.92585e+08
5.94553e+08
7.3372e+08
9.1931e+08
1.16183e+09
1.4731e+09
1.86575e+09
2.35269e+09
2.94706e+09
3.66248e+09
4.5124e+09
5.50836e+09
6.65874e+09
7.97516e+09
9.62883e+09
1.18726e+10
1.44989e+10
1.7205e+10
1.98819e+10
2.24921e+10
2.50097e+10
2.74124e+10
2.96807e+10
3.17992e+10
3.37569e+10
3.55479e+10
3.71706e+10
3.86273e+10
3.99233e+10
4.10662e+10
4.20653e+10
4.29314e+10
4.36761e+10
4.43114e+10
4.48498e+10
4.53033e+10
4.56835e+10
4.60012e+10
4.62662e+10
4.64872e+10
4.66719e+10
4.6827e+10
4.69582e+10
4.70706e+10
4.71684e+10
4.7255e+10
4.73335e+10
4.74064e+10
4.74756e+10
4.75427e+10
4.76091e+10
4.76758e+10
4.77433e+10
4.78124e+10
4.78832e+10
4.79559e+10
4.80304e+10
4.81066e+10
4.81841e+10
4.82623e+10
4.83407e+10
4.84184e+10
4.84947e+10
4.85687e+10
4.86392e+10
4.87013e+10
)
;

boundaryField
{
    sides
    {
        type            zeroGradient;
    }
    empty
    {
        type            empty;
    }
}


// ************************************************************************* //
