/*--------------------------------*- C++ -*----------------------------------*\
| =========                 |                                                 |
| \\      /  F ield         | OpenFOAM: The Open Source CFD Toolbox           |
|  \\    /   O peration     | Version:  2312                                  |
|   \\  /    A nd           | Website:  www.openfoam.com                      |
|    \\/     M anipulation  |                                                 |
\*---------------------------------------------------------------------------*/
FoamFile
{
    version     2.0;
    format      ascii;
    arch        "LSB;label=32;scalar=64";
    class       volVectorField;
    location    "6e-05";
    object      U;
}
// * * * * * * * * * * * * * * * * * * * * * * * * * * * * * * * * * * * * * //

dimensions      [0 1 -1 0 0 0 0];

internalField   nonuniform List<vector> 
100
(
(1.61753e-16 0 0)
(2.76522e-16 0 0)
(1.05129e-16 0 0)
(-2.35322e-16 0 0)
(-3.08083e-16 0 0)
(1.61753e-16 0 0)
(2.76522e-16 0 0)
(1.24852e-16 0 0)
(-2.96245e-16 0 0)
(-6.96109e-17 0 0)
(3.73809e-16 0 0)
(-5.14169e-17 0 0)
(0 0 0)
(1.69312e-16 0 0)
(-1.17895e-16 0 0)
(-5.856e-17 0 0)
(7.14308e-18 0 0)
(0 0 0)
(1.69312e-16 0 0)
(-1.17895e-16 0 0)
(0 0 0)
(-5.14169e-17 0 0)
(0 0 0)
(1.69312e-16 0 0)
(-1.76455e-16 0 0)
(7.96636e-17 0 0)
(-2.69471e-16 0 0)
(5.13214e-17 0 0)
(3.14941e-16 0 0)
(5.30473e-17 0 0)
(-2.7631e-17 0 0)
(0 0 0)
(0 0 0)
(5.72437e-18 0 0)
(6.49804e-17 0 0)
(-7.07047e-17 0 0)
(0 0 0)
(0 0 0)
(5.72437e-18 0 0)
(-1.454e-16 0 0)
(-1.71156e-15 0 0)
(-6.11372e-12 0 0)
(-1.87907e-08 0 0)
(-4.84382e-05 0 0)
(-0.060915 0 0)
(-1.11195 0 0)
(-6.00922 0 0)
(-21.349 0 0)
(-45.0546 0 0)
(-15.9831 0 0)
(86.2079 0 0)
(20.0391 0 0)
(1.24337 0 0)
(0.0542433 0 0)
(0.00171101 0 0)
(4.20922e-05 0 0)
(8.18513e-07 0 0)
(1.28407e-08 0 0)
(1.64096e-10 0 0)
(1.63008e-12 0 0)
(-4.00702e-14 0 0)
(1.87949e-13 0 0)
(0 0 0)
(0 0 0)
(5.8592e-14 0 0)
(-2.47508e-13 0 0)
(1.88916e-13 0 0)
(0 0 0)
(0 0 0)
(7.45306e-14 0 0)
(-1.87949e-13 0 0)
(3.3124e-13 0 0)
(2.69176e-13 0 0)
(1.00386e-13 0 0)
(-2.08991e-13 0 0)
(-4.91811e-13 0 0)
(1.47123e-13 0 0)
(0 0 0)
(4.67641e-13 0 0)
(-1.22953e-13 0 0)
(-4.91811e-13 0 0)
(1.99293e-13 0 0)
(-5.21699e-14 0 0)
(4.67641e-13 0 0)
(-1.22953e-13 0 0)
(-4.91811e-13 0 0)
(1.99293e-13 0 0)
(-3.98586e-14 0 0)
(4.5533e-13 0 0)
(3.10271e-13 0 0)
(-5.63237e-13 0 0)
(-4.50964e-13 0 0)
(5.00886e-13 0 0)
(4.52191e-13 0 0)
(-8.41088e-14 0 0)
(-5.07753e-13 0 0)
(-3.49908e-13 0 0)
(4.8958e-13 0 0)
(4.52191e-13 0 0)
(-8.41088e-14 0 0)
)
;

boundaryField
{
    sides
    {
        type            zeroGradient;
    }
    empty
    {
        type            empty;
    }
}


// ************************************************************************* //
