/*--------------------------------*- C++ -*----------------------------------*\
| =========                 |                                                 |
| \\      /  F ield         | OpenFOAM: The Open Source CFD Toolbox           |
|  \\    /   O peration     | Version:  2312                                  |
|   \\  /    A nd           | Website:  www.openfoam.com                      |
|    \\/     M anipulation  |                                                 |
\*---------------------------------------------------------------------------*/
FoamFile
{
    version     2.0;
    format      ascii;
    arch        "LSB;label=32;scalar=64";
    class       volVectorField;
    location    "6e-05";
    object      U;
}
// * * * * * * * * * * * * * * * * * * * * * * * * * * * * * * * * * * * * * //

dimensions      [0 1 -1 0 0 0 0];

internalField   nonuniform List<vector> 
100
(
(1.95836e-11 0 0)
(1.28898e-11 0 0)
(-1.09188e-12 0 0)
(-9.68301e-12 0 0)
(-7.48885e-12 0 0)
(9.65485e-12 0 0)
(1.03884e-11 0 0)
(3.77666e-12 0 0)
(1.37243e-12 0 0)
(2.00534e-12 0 0)
(-1.21452e-12 0 0)
(-8.35854e-12 0 0)
(-4.7785e-12 0 0)
(-5.63143e-12 0 0)
(-6.26998e-11 0 0)
(-8.27473e-10 0 0)
(-9.92012e-09 0 0)
(-1.16864e-07 0 0)
(-1.35796e-06 0 0)
(-1.55707e-05 0 0)
(-0.000176301 0 0)
(-0.00197266 0 0)
(-0.0218298 0 0)
(-0.239107 0 0)
(-2.59291 0 0)
(-27.6755 0 0)
(-272.877 0 0)
(-1868.05 0 0)
(-6328.1 0 0)
(-11825.8 0 0)
(-15984.9 0 0)
(-18327.8 0 0)
(-19296.6 0 0)
(-19518.6 0 0)
(-19495.6 0 0)
(-19441.3 0 0)
(-19398.6 0 0)
(-19362.5 0 0)
(-19328.8 0 0)
(-19298.9 0 0)
(-19270 0 0)
(-19230.9 0 0)
(-19175 0 0)
(-19113.6 0 0)
(-19068.5 0 0)
(-19051.3 0 0)
(-19049.9 0 0)
(-18899.3 0 0)
(-15523.6 0 0)
(-11199.5 0 0)
(-10210.9 0 0)
(-10090.5 0 0)
(-10032.4 0 0)
(-9937.6 0 0)
(-9810.18 0 0)
(-9670.75 0 0)
(-9538.2 0 0)
(-9421.88 0 0)
(-9319.97 0 0)
(-9223.02 0 0)
(-9119.84 0 0)
(-9002.23 0 0)
(-8867 0 0)
(-8715.15 0 0)
(-8549.87 0 0)
(-8374.25 0 0)
(-8189.86 0 0)
(-7996.13 0 0)
(-7790.62 0 0)
(-7569.7 0 0)
(-7329.45 0 0)
(-7066.39 0 0)
(-6777.82 0 0)
(-6461.94 0 0)
(-6117.55 0 0)
(-5743.79 0 0)
(-5339.79 0 0)
(-4904.48 0 0)
(-4436.47 0 0)
(-3934.14 0 0)
(-3395.83 0 0)
(-2819.98 0 0)
(-2205.41 0 0)
(-1551.49 0 0)
(-858.242 0 0)
(-126.461 0 0)
(642.352 0 0)
(1446.06 0 0)
(2282.05 0 0)
(3147.42 0 0)
(4039.15 0 0)
(4954.2 0 0)
(5889.48 0 0)
(6841.51 0 0)
(7805.91 0 0)
(8776.64 0 0)
(9745.11 0 0)
(10699.3 0 0)
(11620 0 0)
(12439.3 0 0)
)
;

boundaryField
{
    sides
    {
        type            zeroGradient;
    }
    empty
    {
        type            empty;
    }
}


// ************************************************************************* //
