0.000749886 	160008 	0.00428047 	0.897987 	-3.32574e-10 	3.34649e-10
0.0016069 	160030 	0.00428165 	1.61675 	-3.21605e-10 	3.24421e-10
0.0025654 	160044 	0.00428342 	2.41846 	-3.31282e-10 	3.33757e-10
0.00354676 	160054 	0.00428587 	3.26997 	-3.31021e-10 	3.32769e-10
0.0045362 	160061 	0.00428903 	4.14136 	-3.14195e-10 	3.14895e-10
0.00552938 	160066 	0.00429293 	5.02236 	-3.14425e-10 	3.14534e-10
0.0065246 	160071 	0.00429757 	5.90868 	-3.12183e-10 	3.12147e-10
0.00752105 	160075 	0.00430296 	6.79827 	-3.0721e-10 	3.07201e-10
0.00851829 	160079 	0.0043091 	7.69 	-2.94817e-10 	2.94837e-10
0.00951608 	160082 	0.00431601 	8.5832 	-2.78373e-10 	2.78399e-10
0.0105143 	160085 	0.00432369 	9.47747 	-2.63539e-10 	2.63524e-10
0.0115127 	160088 	0.00433214 	10.3725 	-2.52046e-10 	2.51594e-10
0.0125114 	160091 	0.00434137 	11.2682 	-2.39913e-10 	2.39074e-10
0.0135103 	160093 	0.00435138 	12.1643 	-2.27472e-10 	2.2634e-10
0.0145093 	160095 	0.00436217 	13.0609 	-2.14994e-10 	2.13487e-10
0.0155084 	160098 	0.00437376 	13.9577 	-2.03435e-10 	2.00785e-10
0.0165076 	160100 	0.00438615 	14.8548 	-1.92656e-10 	1.90729e-10
0.0175069 	160102 	0.00439934 	15.7521 	-1.85931e-10 	1.85626e-10
0.0185062 	160104 	0.00441335 	16.6496 	-1.80115e-10 	1.79992e-10
0.0195056 	160106 	0.00442818 	17.5473 	-1.77938e-10 	1.77938e-10
0.020505 	160108 	0.00444384 	18.4451 	-1.75766e-10 	1.75762e-10
0.0215045 	160110 	0.00446033 	19.343 	-1.73007e-10 	1.7301e-10
0.022504 	160111 	0.00447766 	20.241 	-1.70918e-10 	1.70911e-10
0.0235035 	160113 	0.00449585 	21.1392 	-1.69147e-10 	1.69135e-10
0.0245031 	160115 	0.0045149 	22.0374 	-1.66277e-10 	1.66267e-10
0.0255027 	160117 	0.00453483 	22.9356 	-1.62571e-10 	1.62578e-10
0.0265023 	160119 	0.00455563 	23.834 	-1.5917e-10 	1.59155e-10
0.0275019 	160120 	0.00457733 	24.7324 	-1.55621e-10 	1.55612e-10
0.0285015 	160122 	0.00459994 	25.6309 	-1.49659e-10 	1.4965e-10
0.0295012 	160124 	0.00462346 	26.5294 	-1.4498e-10 	1.44975e-10
0.0305008 	160125 	0.00464791 	27.428 	-1.39853e-10 	1.39855e-10
0.0315005 	160127 	0.0046733 	28.3266 	-1.35559e-10 	1.35561e-10
0.0325002 	160129 	0.00469965 	29.2253 	-1.29509e-10 	1.29511e-10
0.0334999 	160131 	0.00472696 	30.1241 	-1.24335e-10 	1.24336e-10
0.0344996 	160132 	0.00475526 	31.0228 	-1.18924e-10 	1.18924e-10
0.0354993 	160134 	0.00478456 	31.9216 	-1.14421e-10 	1.14427e-10
0.036499 	160136 	0.00481486 	32.8205 	-1.09658e-10 	1.09658e-10
0.0374987 	160138 	0.0048462 	33.7194 	-1.05043e-10 	1.05043e-10
0.0384985 	160139 	0.00487859 	34.6183 	-1.00211e-10 	1.00211e-10
0.0394982 	160141 	0.00491204 	35.5172 	-9.56964e-11 	9.56964e-11
0.040498 	160143 	0.00494657 	36.4162 	-9.01579e-11 	9.01579e-11
0.0414977 	160145 	0.0049822 	37.3153 	-8.37023e-11 	8.37023e-11
0.0424975 	160147 	0.00501895 	38.2143 	-7.79568e-11 	7.79568e-11
0.0434972 	160148 	0.00505684 	39.1134 	-7.21959e-11 	7.21959e-11
0.044497 	160150 	0.00509589 	40.0125 	-6.70284e-11 	6.70284e-11
0.0454967 	160152 	0.00513612 	40.9117 	-6.17977e-11 	6.17977e-11
0.0464965 	160154 	0.00517756 	41.8109 	-5.61965e-11 	5.61965e-11
0.0474963 	160156 	0.00522022 	42.7101 	-5.06045e-11 	5.06045e-11
0.0484961 	160158 	0.00526413 	43.6094 	-4.46855e-11 	4.46855e-11
0.0494958 	160160 	0.00530932 	44.5087 	-3.95679e-11 	3.95679e-11
0.0504956 	160162 	0.0053558 	45.408 	-3.48092e-11 	3.48092e-11
0.0514954 	160164 	0.00540362 	46.3073 	-2.97494e-11 	2.97494e-11
0.0524952 	160166 	0.00545278 	47.2067 	-2.53603e-11 	2.53603e-11
0.053495 	160169 	0.00550333 	48.1061 	-2.08956e-11 	2.08956e-11
0.0544948 	160171 	0.00555529 	49.0056 	-1.70403e-11 	1.70403e-11
0.0554946 	160173 	0.00560868 	49.9051 	-1.29103e-11 	1.29103e-11
0.0564944 	160175 	0.00566355 	50.8046 	-9.08123e-12 	9.08123e-12
0.0574942 	160178 	0.00571992 	51.7041 	-5.78211e-12 	5.78211e-12
0.058494 	160180 	0.00577782 	52.6037 	-2.96608e-12 	2.96608e-12
0.0594938 	160182 	0.00583729 	53.5033 	-1.52456e-13 	1.52456e-13
0.0604936 	160185 	0.00589837 	54.403 	1.53061e-12 	-1.53061e-12
0.0614934 	160187 	0.00596108 	55.3027 	2.828e-12 	-2.828e-12
0.0624932 	160190 	0.00602547 	56.2024 	4.03326e-12 	-4.03326e-12
0.063493 	160192 	0.00609157 	57.1022 	4.89676e-12 	-4.89676e-12
0.0644928 	160195 	0.00615943 	58.002 	5.43909e-12 	-5.43909e-12
0.0654926 	160197 	0.00622908 	58.9018 	5.6817e-12 	-5.6817e-12
0.0664924 	160200 	0.00630056 	59.8017 	6.13498e-12 	-6.13498e-12
0.0674922 	160203 	0.00637393 	60.7016 	6.84788e-12 	-6.84788e-12
0.068492 	160206 	0.00644922 	61.6016 	6.77171e-12 	-6.77171e-12
0.0694918 	160208 	0.00652649 	62.5016 	6.60335e-12 	-6.60335e-12
0.0704916 	160211 	0.00660577 	63.4017 	6.43499e-12 	-6.43499e-12
0.0714915 	160214 	0.00668711 	64.3017 	6.19237e-12 	-6.19237e-12
0.0724913 	160217 	0.00677058 	65.2019 	6.00254e-12 	-6.00254e-12
0.0734911 	160221 	0.00685622 	66.102 	5.86266e-12 	-5.86266e-12
0.0744909 	160224 	0.00694408 	67.0023 	5.69232e-12 	-5.69053e-12
0.0754907 	160227 	0.00703421 	67.9025 	5.70669e-12 	-5.70555e-12
0.0764906 	160230 	0.00712669 	68.8029 	5.5257e-12 	-5.52544e-12
0.0774904 	160234 	0.00722156 	69.7032 	5.30844e-12 	-5.30682e-12
0.0784902 	160237 	0.00731889 	70.6036 	5.09716e-12 	-5.09447e-12
0.07949 	160240 	0.00741874 	71.5041 	4.73797e-12 	-4.7357e-12
0.0804898 	160244 	0.00752117 	72.4046 	4.2189e-12 	-4.21667e-12
0.0814897 	160248 	0.00762626 	73.3052 	3.53952e-12 	-3.53821e-12
0.0824895 	160251 	0.00773407 	74.2058 	2.71694e-12 	-2.71673e-12
0.0834893 	160255 	0.00784466 	75.1065 	1.68109e-12 	-1.65692e-12
0.0844891 	160259 	0.00795812 	76.0072 	5.13374e-13 	-4.64651e-13
0.085489 	160263 	0.00807453 	76.908 	-7.82371e-13 	8.5335e-13
0.0864888 	160267 	0.00819395 	77.8089 	-1.62591e-12 	1.71836e-12
0.0874886 	160271 	0.00831647 	78.7098 	-2.59674e-12 	2.66221e-12
0.0884884 	160276 	0.00844218 	79.6108 	-3.14617e-12 	3.18388e-12
0.0894883 	160280 	0.00857115 	80.5118 	-3.57446e-12 	3.5718e-12
0.0904881 	160285 	0.00870348 	81.4129 	-3.781e-12 	3.70379e-12
0.0914879 	160289 	0.00883926 	82.3141 	-3.73839e-12 	3.58628e-12
0.0924877 	160294 	0.00897858 	83.2154 	-3.67028e-12 	3.61637e-12
0.0934876 	160299 	0.00912154 	84.1167 	-3.45374e-12 	3.41991e-12
0.0944874 	160303 	0.00926823 	85.0181 	-3.01344e-12 	2.99843e-12
0.0954872 	160308 	0.00941878 	85.9195 	-2.48319e-12 	2.36565e-12
0.0964871 	160314 	0.00957327 	86.8211 	-2.14881e-12 	1.9152e-12
0.0974869 	160319 	0.00973182 	87.7227 	-1.68062e-12 	1.67783e-12
0.0984867 	160324 	0.00989455 	88.6244 	-1.23176e-12 	1.24771e-12
0.0994866 	160330 	0.0100616 	89.5262 	-7.81834e-13 	8.2016e-13
0.100486 	160335 	0.010233 	90.428 	-5.27946e-13 	5.88959e-13
0.101486 	160341 	0.010409 	91.33 	-3.62298e-13 	4.4075e-13
0.102486 	160347 	0.0105896 	92.2321 	-9.95792e-14 	1.13348e-13
0.103486 	160353 	0.010775 	93.1342 	2.39703e-13 	-2.5665e-13
0.104486 	160359 	0.0109654 	94.0364 	7.48761e-13 	-7.95361e-13
0.105486 	160366 	0.0111608 	94.9387 	1.42414e-12 	-1.45863e-12
0.106485 	160372 	0.0113615 	95.8412 	1.93397e-12 	-1.95775e-12
0.107485 	160379 	0.0115675 	96.7437 	2.60312e-12 	-2.61667e-12
0.108485 	160386 	0.0117791 	97.6463 	3.12126e-12 	-3.12353e-12
0.109485 	160393 	0.0119963 	98.5491 	3.55977e-12 	-3.56122e-12
0.110485 	160400 	0.0122194 	99.4519 	3.85767e-12 	-3.85857e-12
0.111485 	160407 	0.0124486 	100.355 	4.02143e-12 	-4.02123e-12
0.112484 	160415 	0.0126839 	101.258 	3.98414e-12 	-3.98369e-12
0.113484 	160423 	0.0129256 	102.161 	3.94887e-12 	-3.94926e-12
0.114484 	160430 	0.0131739 	103.065 	4.03524e-12 	-4.03622e-12
0.115484 	160439 	0.013429 	103.968 	4.00086e-12 	-4.00101e-12
0.116484 	160447 	0.013691 	104.872 	3.84791e-12 	-3.84814e-12
0.117484 	160456 	0.0139602 	105.775 	3.76855e-12 	-3.7686e-12
0.118483 	160464 	0.0142368 	106.679 	3.79345e-12 	-3.79387e-12
0.119483 	160473 	0.014521 	107.583 	3.71156e-12 	-3.71148e-12
0.120483 	160483 	0.014813 	108.487 	3.96952e-12 	-3.96981e-12
0.121483 	160492 	0.0151131 	109.392 	4.12917e-12 	-4.12934e-12
0.122483 	160502 	0.0154215 	110.296 	3.9805e-12 	-3.9802e-12
0.123483 	160512 	0.0157384 	111.201 	3.73499e-12 	-3.73391e-12
0.124482 	160522 	0.0160642 	112.105 	3.44073e-12 	-3.44021e-12
0.125482 	160533 	0.0163991 	113.01 	3.17299e-12 	-3.17278e-12
0.126482 	160544 	0.0167433 	113.915 	2.81356e-12 	-2.81307e-12
0.127482 	160555 	0.0170971 	114.821 	2.36157e-12 	-2.36085e-12
0.128482 	160567 	0.0174609 	115.726 	1.8435e-12 	-1.8432e-12
0.129482 	160578 	0.017835 	116.632 	1.32722e-12 	-1.32679e-12
0.130481 	160591 	0.0182195 	117.538 	8.7655e-13 	-8.75932e-13
0.131481 	160603 	0.018615 	118.444 	4.90476e-13 	-4.89793e-13
0.132481 	160616 	0.0190216 	119.35 	1.70348e-13 	-1.6959e-13
0.133481 	160629 	0.0194398 	120.257 	-7.9846e-14 	8.06063e-14
0.134481 	160643 	0.0198699 	121.163 	-3.30175e-13 	3.30932e-13
0.135481 	160656 	0.0203122 	122.07 	-3.59109e-13 	3.59479e-13
0.13648 	160671 	0.0207672 	122.977 	-1.67914e-13 	1.68278e-13
0.13748 	160686 	0.0212352 	123.885 	-1.89169e-13 	1.8917e-13
0.13848 	160701 	0.0217166 	124.792 	-1.89227e-13 	1.89227e-13
0.13948 	160716 	0.0222119 	125.7 	-1.88096e-13 	1.88096e-13
0.14048 	160732 	0.0227214 	126.608 	-1.87504e-13 	1.87504e-13
0.14148 	160749 	0.0232456 	127.517 	-1.86001e-13 	1.86001e-13
0.14248 	160766 	0.0237849 	128.426 	-2.1475e-13 	2.1475e-13
0.143479 	160783 	0.0243399 	129.335 	-1.83492e-13 	1.83492e-13
0.144479 	160801 	0.024911 	130.244 	-1.82149e-13 	1.82149e-13
0.145479 	160820 	0.0254987 	131.153 	-1.60095e-13 	1.60095e-13
0.146479 	160839 	0.0261034 	132.063 	-1.96447e-13 	1.96447e-13
0.147479 	160858 	0.0267258 	132.974 	-1.79536e-13 	1.79536e-13
0.148479 	160878 	0.0273664 	133.884 	-1.36521e-13 	1.36743e-13
0.149478 	160899 	0.0280258 	134.795 	-3.91215e-14 	3.92902e-14
0.150478 	160921 	0.0287044 	135.706 	-9.38654e-14 	9.42129e-14
0.151478 	160943 	0.029403 	136.618 	-1.76123e-13 	1.76244e-13
0.152478 	160965 	0.0301221 	137.53 	-1.19048e-13 	1.19368e-13
0.153478 	160989 	0.0308623 	138.443 	-7.62147e-14 	7.63302e-14
0.154478 	161013 	0.0316244 	139.355 	-1.72997e-13 	1.72918e-13
0.155477 	161037 	0.0324089 	140.269 	-1.71627e-13 	1.71545e-13
0.156477 	161063 	0.0332167 	141.182 	-1.74465e-13 	1.74493e-13
0.157477 	161089 	0.0340483 	142.096 	-2.22578e-13 	2.22493e-13
0.158477 	161116 	0.0349045 	143.011 	-1.45541e-13 	1.45469e-13
0.159477 	161144 	0.0357861 	143.926 	-1.89935e-13 	1.89998e-13
0.160477 	161173 	0.0366938 	144.842 	-1.97472e-13 	1.97489e-13
0.161476 	161203 	0.0376285 	145.758 	-1.66315e-13 	1.66258e-13
0.162476 	161233 	0.038591 	146.674 	-1.25799e-13 	1.25862e-13
0.163476 	161265 	0.039582 	147.591 	-1.97643e-13 	1.97762e-13
0.164476 	161297 	0.0406026 	148.509 	-1.63649e-13 	1.63603e-13
0.165476 	161331 	0.0416536 	149.427 	-1.62183e-13 	1.62115e-13
0.166476 	161365 	0.0427358 	150.346 	-1.52327e-13 	1.52239e-13
0.167476 	161401 	0.0438503 	151.266 	-1.07998e-13 	1.07878e-13
0.168475 	161438 	0.044998 	152.186 	-1.62138e-13 	1.62026e-13
0.169475 	161476 	0.04618 	153.106 	-2.54857e-13 	2.54653e-13
0.170475 	161515 	0.0473972 	154.028 	-3.90475e-13 	3.90232e-13
0.171475 	161555 	0.0486507 	154.95 	-5.73217e-13 	5.72841e-13
0.172475 	161597 	0.0499417 	155.873 	-6.84341e-13 	6.83863e-13
0.173475 	161640 	0.0512711 	156.796 	-7.8162e-13 	7.81415e-13
0.174474 	161684 	0.0526402 	157.721 	-8.86092e-13 	8.85859e-13
0.175474 	161730 	0.0540501 	158.646 	-9.2088e-13 	9.20611e-13
0.176474 	161777 	0.0555021 	159.572 	-8.81165e-13 	8.80838e-13
0.177474 	161826 	0.0569973 	160.499 	-8.15338e-13 	8.14926e-13
0.178474 	161876 	0.0585371 	161.427 	-6.94323e-13 	6.94038e-13
0.179474 	161928 	0.0601227 	162.355 	-5.11102e-13 	5.10827e-13
0.180473 	161982 	0.0617555 	163.285 	-3.60552e-13 	3.60175e-13
0.181473 	162037 	0.0634368 	164.215 	-2.52653e-13 	2.52348e-13
0.182473 	162094 	0.0651681 	165.147 	-1.81129e-13 	1.80909e-13
0.183473 	162153 	0.0669508 	166.079 	-1.48977e-13 	1.48944e-13
0.184473 	162214 	0.0687863 	167.013 	-1.48532e-13 	1.48554e-13
0.185473 	162276 	0.0706762 	167.948 	-1.3408e-13 	1.34114e-13
0.186473 	162341 	0.072622 	168.884 	-7.40918e-14 	7.40266e-14
0.187472 	162408 	0.0746252 	169.821 	-4.06329e-14 	4.03495e-14
0.188472 	162477 	0.0766876 	170.759 	0 	0
0.189472 	162549 	0.0788106 	171.699 	2.77613e-14 	-2.77613e-14
0.190472 	162622 	0.0809961 	172.64 	7.13099e-14 	-7.13099e-14
0.191472 	162698 	0.0832458 	173.582 	8.30024e-14 	-8.30024e-14
0.192472 	162777 	0.0855613 	174.526 	5.8464e-14 	-5.8464e-14
0.193471 	162858 	0.0879446 	175.471 	2.93115e-14 	-2.93115e-14
0.194471 	162942 	0.0903973 	176.418 	3.25248e-14 	-3.25248e-14
0.195471 	163029 	0.0929215 	177.366 	0 	0
0.196471 	163118 	0.0955191 	178.315 	-3.41412e-14 	3.42094e-14
0.197471 	163210 	0.0981919 	179.267 	-4.01767e-14 	4.03796e-14
0.198471 	163306 	0.100942 	180.22 	-1.38659e-14 	1.41144e-14
0.199471 	163404 	0.103771 	181.175 	5.11609e-14 	-5.08623e-14
0.20047 	163506 	0.106682 	182.132 	9.76789e-14 	-9.73003e-14
0.20147 	163611 	0.109676 	183.09 	1.23204e-13 	-1.22796e-13
0.20247 	163720 	0.112756 	184.051 	1.37499e-13 	-1.37125e-13
0.20347 	163832 	0.115923 	185.013 	1.25936e-13 	-1.25601e-13
0.20447 	163948 	0.119181 	185.978 	8.44365e-14 	-8.41019e-14
0.20547 	164068 	0.122531 	186.945 	6.34472e-14 	-6.31137e-14
0.206469 	164192 	0.125975 	187.914 	6.69824e-14 	-6.66603e-14
0.207469 	164319 	0.129516 	188.885 	4.38212e-14 	-4.34954e-14
0.208469 	164451 	0.133156 	189.859 	4.2919e-14 	-4.26195e-14
0.209469 	164588 	0.136898 	190.835 	1.52006e-14 	-1.49684e-14
0.210469 	164728 	0.140744 	191.814 	-3.85923e-15 	4.12425e-15
0.211469 	164874 	0.144697 	192.795 	-2.20188e-14 	2.22634e-14
0.212468 	165024 	0.148758 	193.779 	-7.1224e-14 	7.14122e-14
0.213468 	165180 	0.152931 	194.766 	-1.11077e-13 	1.11158e-13
0.214468 	165340 	0.157218 	195.756 	-1.61255e-13 	1.61336e-13
0.215468 	165506 	0.161622 	196.748 	-2.0559e-13 	2.05658e-13
0.216468 	165677 	0.166146 	197.744 	-1.96806e-13 	1.96889e-13
0.217468 	165853 	0.170791 	198.743 	-1.65217e-13 	1.65275e-13
0.218468 	166036 	0.175561 	199.745 	-1.40228e-13 	1.40279e-13
0.219467 	166224 	0.180458 	200.751 	-1.26075e-13 	1.26081e-13
0.220467 	166419 	0.185486 	201.76 	-1.20338e-13 	1.2034e-13
0.221467 	166620 	0.190646 	202.773 	-1.14622e-13 	1.14601e-13
0.222467 	166828 	0.195943 	203.789 	-1.09509e-13 	1.09495e-13
0.223467 	167042 	0.201377 	204.81 	-9.44472e-14 	9.44472e-14
0.224467 	167264 	0.206954 	205.834 	-5.7423e-14 	5.7423e-14
0.225466 	167493 	0.212674 	206.862 	-6.5799e-14 	6.5799e-14
0.226466 	167729 	0.218542 	207.895 	-8.0013e-14 	8.0013e-14
0.227466 	167973 	0.22456 	208.932 	-1.20809e-13 	1.20809e-13
0.228466 	168224 	0.230731 	209.973 	-1.25795e-13 	1.25795e-13
0.229466 	168484 	0.237057 	211.02 	-1.53824e-13 	1.53824e-13
0.230466 	168753 	0.243543 	212.07 	-1.80317e-13 	1.80317e-13
0.231466 	169030 	0.250191 	213.126 	-1.70008e-13 	1.70008e-13
0.232465 	169316 	0.257003 	214.187 	-1.73802e-13 	1.73802e-13
0.233465 	169611 	0.263983 	215.253 	-1.6625e-13 	1.6625e-13
0.234465 	169916 	0.271135 	216.325 	-1.75358e-13 	1.75358e-13
0.235465 	170230 	0.27846 	217.402 	-1.76759e-13 	1.76759e-13
0.236465 	170555 	0.285961 	218.485 	-1.66843e-13 	1.66843e-13
0.237465 	170890 	0.293643 	219.573 	-1.71337e-13 	1.71337e-13
0.238464 	171236 	0.301508 	220.668 	-1.66891e-13 	1.66891e-13
0.239464 	171593 	0.309558 	221.769 	-1.70295e-13 	1.70295e-13
0.240464 	171961 	0.317798 	222.877 	-1.95061e-13 	1.95061e-13
0.241464 	172340 	0.326229 	223.991 	-1.96755e-13 	1.96755e-13
0.242464 	172732 	0.334856 	225.112 	-1.89972e-13 	1.89972e-13
0.243464 	173136 	0.34368 	226.24 	-1.41005e-13 	1.41005e-13
0.244464 	173553 	0.352705 	227.375 	-1.06319e-13 	1.06319e-13
0.245463 	173984 	0.361934 	228.517 	-9.31936e-14 	9.31936e-14
0.246463 	174427 	0.37137 	229.667 	-1.14924e-13 	1.14924e-13
0.247463 	174885 	0.381016 	230.825 	-1.14749e-13 	1.14749e-13
0.248463 	175356 	0.390874 	231.992 	-1.0456e-13 	1.0456e-13
0.249463 	175843 	0.400948 	233.166 	-1.29272e-13 	1.29272e-13
0.250463 	176344 	0.411241 	234.349 	-1.38046e-13 	1.38046e-13
0.251462 	176862 	0.421755 	235.54 	-1.45301e-13 	1.45301e-13
0.252462 	177395 	0.432493 	236.741 	-1.5053e-13 	1.5053e-13
0.253462 	177944 	0.443459 	237.95 	-1.52678e-13 	1.52678e-13
0.254462 	178511 	0.454654 	239.169 	-1.52591e-13 	1.52591e-13
0.255462 	179094 	0.466082 	240.398 	-1.46266e-13 	1.46266e-13
0.256462 	179696 	0.477745 	241.637 	-1.51327e-13 	1.51327e-13
0.257462 	180316 	0.489647 	242.886 	-1.54711e-13 	1.54711e-13
0.258461 	180955 	0.501789 	244.145 	-1.38131e-13 	1.38131e-13
0.259461 	181613 	0.514175 	245.415 	-1.22483e-13 	1.22483e-13
0.260461 	182291 	0.526807 	246.696 	-1.07469e-13 	1.07469e-13
0.261461 	182989 	0.539687 	247.988 	-9.2786e-14 	9.2786e-14
0.262461 	183709 	0.552818 	249.292 	-7.76679e-14 	7.76679e-14
0.263461 	184450 	0.566204 	250.608 	-6.05976e-14 	6.05976e-14
0.26446 	185213 	0.579845 	251.935 	-3.83578e-14 	3.83578e-14
0.26546 	185999 	0.593745 	253.275 	-2.46354e-14 	2.46354e-14
0.26646 	186808 	0.607905 	254.627 	-6.77033e-15 	6.77033e-15
0.26746 	187641 	0.62233 	255.992 	8.10929e-16 	-8.10929e-16
0.26846 	188498 	0.637019 	257.371 	7.66215e-15 	-7.66215e-15
0.26946 	189381 	0.651977 	258.762 	1.38649e-14 	-1.38649e-14
0.27046 	190289 	0.667204 	260.168 	1.92061e-14 	-1.92061e-14
0.271459 	191224 	0.682704 	261.587 	2.30554e-14 	-2.30554e-14
0.272459 	192186 	0.698478 	263.021 	2.35765e-14 	-2.35765e-14
0.273459 	193176 	0.714528 	264.47 	1.64212e-14 	-1.64212e-14
0.274459 	194194 	0.730857 	265.933 	8.62587e-15 	-8.62587e-15
0.275459 	195242 	0.747466 	267.411 	-1.99652e-15 	1.99652e-15
0.276459 	196320 	0.764357 	268.905 	-4.41769e-16 	4.41769e-16
0.277458 	197428 	0.781533 	270.414 	-3.67908e-15 	3.67908e-15
0.278458 	198568 	0.798995 	271.94 	-3.02305e-15 	3.02305e-15
0.279458 	199741 	0.816745 	273.482 	-4.12934e-16 	4.12934e-16
0.280458 	200946 	0.834784 	275.04 	0 	9.70569e-35
0.281458 	202185 	0.853115 	276.615 	1.28089e-15 	-1.28089e-15
0.282458 	203459 	0.871739 	278.208 	8.5761e-15 	-8.5761e-15
0.283457 	204768 	0.890657 	279.818 	1.1852e-14 	-1.1852e-14
0.284457 	206114 	0.909871 	281.445 	4.57611e-15 	-4.57611e-15
0.285457 	207497 	0.929383 	283.09 	1.19687e-15 	-1.19687e-15
0.286457 	208918 	0.949195 	284.754 	0 	8.59738e-35
0.287457 	210378 	0.969306 	286.436 	0 	0
0.288457 	211878 	0.98972 	288.137 	-6.72899e-15 	6.72899e-15
0.289457 	213419 	1.01044 	289.857 	-1.12738e-14 	1.12738e-14
0.290456 	215001 	1.03146 	291.596 	-1.01975e-14 	1.01975e-14
0.291456 	216626 	1.05278 	293.354 	-6.09083e-15 	6.09083e-15
0.292456 	218295 	1.07442 	295.132 	-9.56481e-15 	9.56481e-15
0.293456 	220009 	1.09636 	296.93 	-5.56274e-15 	5.56274e-15
0.294456 	221768 	1.11861 	298.749 	-1.04002e-15 	1.04002e-15
0.295456 	223573 	1.14117 	300.587 	3.87153e-15 	-3.87153e-15
0.296455 	225426 	1.16404 	302.446 	-4.26093e-16 	4.26093e-16
0.297455 	227328 	1.18723 	304.326 	0 	6.32658e-35
0.298455 	229280 	1.21072 	306.227 	0 	0
0.299455 	231282 	1.23453 	308.148 	0 	5.89268e-35
0.300455 	233336 	1.25866 	310.091 	-7.16595e-15 	7.16595e-15
0.301455 	235442 	1.2831 	312.055 	-1.97988e-15 	1.97988e-15
0.302455 	237603 	1.30785 	314.041 	-8.35361e-15 	8.35361e-15
0.303454 	239819 	1.33292 	316.049 	-5.598e-15 	5.598e-15
0.304454 	242091 	1.35831 	318.078 	3.25443e-15 	-3.25443e-15
0.305454 	244420 	1.38402 	320.129 	6.28677e-16 	-6.28677e-16
0.306454 	246807 	1.41004 	322.202 	0 	4.68902e-35
0.307454 	249255 	1.43639 	324.297 	0 	0
0.308454 	251762 	1.46305 	326.414 	-1.07204e-14 	1.07204e-14
0.309453 	254332 	1.49003 	328.553 	-1.89353e-14 	1.89353e-14
0.310453 	256965 	1.51734 	330.714 	-1.49461e-14 	1.49461e-14
0.311453 	259661 	1.54496 	332.898 	-1.10435e-14 	1.10435e-14
0.312453 	262423 	1.57291 	335.104 	-7.45462e-15 	7.45462e-15
0.313453 	265252 	1.60117 	337.332 	-4.26869e-15 	4.26869e-15
0.314453 	268148 	1.62976 	339.582 	3.57005e-15 	-3.57005e-15
0.315453 	271114 	1.65867 	341.854 	6.1847e-16 	-6.1847e-16
0.316452 	274149 	1.68791 	344.148 	-5.38589e-16 	5.38589e-16
0.317452 	277256 	1.71746 	346.465 	-2.83381e-16 	2.83381e-16
0.318452 	280435 	1.74734 	348.803 	-2.9783e-15 	2.9783e-15
0.319452 	283688 	1.77755 	351.163 	-1.13335e-14 	1.13335e-14
0.320452 	287016 	1.80808 	353.545 	-1.90424e-14 	1.90424e-14
0.321452 	290421 	1.83893 	355.948 	-2.52105e-14 	2.52105e-14
0.322451 	293902 	1.87011 	358.373 	-2.3196e-14 	2.3196e-14
0.323451 	297463 	1.90162 	360.82 	-2.97143e-14 	2.97143e-14
0.324451 	301103 	1.93346 	363.288 	-3.37171e-14 	3.37171e-14
0.325451 	304825 	1.96562 	365.776 	-3.03704e-14 	3.03704e-14
0.326451 	308629 	1.99811 	368.286 	-2.71533e-14 	2.71533e-14
0.327451 	312517 	2.03093 	370.816 	-2.3753e-14 	2.3753e-14
0.328451 	316490 	2.06408 	373.366 	-1.74396e-14 	1.74396e-14
0.32945 	320548 	2.09756 	375.937 	-1.86505e-14 	1.86505e-14
0.33045 	324695 	2.13138 	378.528 	-1.72853e-14 	1.72853e-14
0.33145 	328930 	2.16553 	381.138 	-1.55897e-14 	1.55897e-14
0.33245 	333255 	2.20001 	383.767 	-1.37818e-14 	1.37818e-14
0.33345 	337671 	2.23483 	386.416 	-1.76792e-14 	1.76792e-14
0.33445 	342179 	2.26999 	389.082 	-2.02497e-14 	2.02497e-14
0.33545 	346780 	2.30548 	391.768 	-1.61364e-14 	1.61364e-14
0.336449 	351473 	2.3413 	394.472 	-1.22361e-14 	1.22361e-14
0.337449 	356261 	2.37745 	397.193 	-8.5472e-15 	8.5472e-15
0.338449 	361144 	2.41394 	399.929 	-5.11275e-15 	5.11275e-15
0.339449 	366121 	2.45075 	402.68 	-2.7787e-15 	2.7787e-15
0.340449 	371193 	2.48789 	405.443 	-2.32546e-15 	2.32546e-15
0.341449 	376356 	2.52533 	408.216 	-5.0744e-15 	5.0744e-15
0.342448 	381608 	2.56305 	410.993 	-4.34512e-15 	4.34512e-15
0.343448 	386941 	2.60103 	413.769 	-2.5111e-15 	2.5111e-15
0.344448 	392344 	2.63918 	416.534 	2.09794e-16 	-2.09794e-16
0.345448 	397798 	2.67743 	419.273 	2.3893e-16 	-2.3893e-16
0.346448 	403274 	2.71561 	421.961 	2.70047e-15 	-2.70047e-15
0.347448 	408721 	2.75347 	424.562 	1.02692e-15 	-1.02692e-15
0.348448 	414060 	2.79063 	427.017 	-1.4473e-15 	1.4473e-15
0.349447 	419160 	2.82644 	429.231 	-2.229e-15 	2.229e-15
0.350447 	423812 	2.85987 	431.054 	-4.5749e-15 	4.5749e-15
0.351447 	427674 	2.88926 	432.243 	-6.72496e-15 	6.72496e-15
0.352447 	430197 	2.9119 	432.407 	-4.36619e-15 	4.36619e-15
0.353447 	430499 	2.92348 	430.913 	-4.213e-15 	4.213e-15
0.354447 	427208 	2.91723 	426.744 	-2.5445e-15 	2.5445e-15
0.355446 	418257 	2.8829 	418.279 	-2.96623e-16 	2.96623e-16
0.356446 	400766 	2.80594 	403.004 	0 	5.87112e-36
0.357446 	371315 	2.66833 	377.239 	-2.96465e-15 	2.96465e-15
0.358446 	327268 	2.45402 	336.266 	-5.90322e-15 	5.90322e-15
0.359446 	269794 	2.16275 	275.899 	-5.9035e-15 	5.9035e-15
0.360446 	207326 	1.82889 	197.203 	-6.75596e-15 	6.75596e-15
0.361446 	154296 	1.52384 	113.684 	-4.27843e-15 	4.27843e-15
0.362445 	121396 	1.31582 	49.5111 	-3.30529e-15 	3.30529e-15
0.363445 	106860 	1.21405 	16.6809 	-4.03763e-15 	4.03763e-15
0.364445 	101961 	1.1768 	4.85047 	-8.52029e-16 	8.52029e-16
0.365445 	100534 	1.1654 	1.33079 	-2.11342e-15 	2.11342e-15
0.366445 	100142 	1.16219 	0.357547 	0 	0
0.367445 	100036 	1.16132 	0.095155 	1.67193e-15 	-1.67193e-15
0.368444 	100008 	1.16108 	0.0251652 	0 	0
0.369444 	100000 	1.16102 	0.00661958 	0 	0
0.370444 	99998.3 	1.16101 	0.00173238 	-7.97228e-16 	7.97228e-16
0.371444 	99997.8 	1.161 	0.000451112 	-4.87835e-15 	4.87835e-15
0.372444 	99997.6 	1.161 	0.000116891 	-5.66711e-15 	5.66711e-15
0.373444 	99997.6 	1.161 	3.01407e-05 	-9.70047e-15 	9.70047e-15
0.374444 	99997.6 	1.161 	7.73433e-06 	-1.048e-14 	1.048e-14
0.375443 	99997.6 	1.161 	1.97518e-06 	-8.0403e-15 	8.0403e-15
0.376443 	99997.6 	1.161 	5.02018e-07 	-2.41559e-15 	2.41559e-15
0.377443 	99997.6 	1.161 	1.26989e-07 	0 	0
0.378443 	99997.6 	1.161 	3.19662e-08 	0 	0
0.379443 	99997.6 	1.161 	8.00153e-09 	1.57127e-15 	-1.57127e-15
0.380443 	99997.6 	1.161 	1.9861e-09 	2.71733e-18 	-2.71733e-18
0.381442 	99997.6 	1.161 	4.8273e-10 	1.55474e-15 	-1.55474e-15
0.382442 	99997.6 	1.161 	1.08157e-10 	0 	0
0.383442 	99997.6 	1.161 	1.84273e-11 	0 	0
0.384442 	99997.6 	1.161 	-6.0326e-12 	-1.52917e-15 	1.52917e-15
0.385442 	99997.6 	1.161 	-2.92377e-11 	0 	0
0.386442 	99997.6 	1.161 	-3.73624e-11 	0 	0
0.387442 	99997.6 	1.161 	-2.15519e-11 	0 	0
0.388441 	99997.6 	1.161 	-2.76279e-12 	2.9967e-15 	-2.9967e-15
0.389441 	99997.6 	1.161 	2.10537e-13 	2.98914e-15 	-2.98914e-15
0.390441 	99997.6 	1.161 	1.84877e-12 	8.73602e-18 	-8.73602e-18
0.391441 	99997.6 	1.161 	1.62704e-11 	0 	0
0.392441 	99997.6 	1.161 	1.11481e-11 	0 	0
0.393441 	99997.6 	1.161 	-4.07722e-12 	1.46028e-15 	-1.46028e-15
0.39444 	99997.6 	1.161 	-9.51978e-12 	0 	0
0.39544 	99997.6 	1.161 	1.44467e-12 	0 	0
0.39644 	99997.6 	1.161 	2.1375e-11 	0 	0
0.39744 	99997.6 	1.161 	3.13528e-11 	0 	0
0.39844 	99997.6 	1.161 	2.61797e-11 	0 	0
0.39944 	99997.6 	1.161 	1.93934e-11 	0 	0
0.40044 	99997.6 	1.161 	1.88033e-11 	0 	0
0.401439 	99997.6 	1.161 	1.96692e-11 	0 	0
0.402439 	99997.6 	1.161 	3.23823e-11 	5.96118e-16 	-5.96118e-16
0.403439 	99997.6 	1.161 	4.40048e-11 	3.97407e-15 	-3.97407e-15
0.404439 	99997.6 	1.161 	3.44258e-11 	1.01029e-14 	-1.01029e-14
0.405439 	99997.6 	1.161 	2.13843e-11 	1.34434e-14 	-1.34434e-14
0.406439 	99997.6 	1.161 	1.90883e-11 	1.4026e-14 	-1.4026e-14
0.407438 	99997.6 	1.161 	1.29126e-11 	6.41929e-15 	-6.41929e-15
0.408438 	99997.6 	1.161 	2.00825e-12 	1.56298e-15 	-1.56298e-15
0.409438 	99997.6 	1.161 	-5.90487e-12 	-5.69024e-16 	5.69024e-16
0.410438 	99997.6 	1.161 	-7.75339e-12 	0 	0
0.411438 	99997.6 	1.161 	1.99226e-12 	0 	0
0.412438 	99997.6 	1.161 	4.71466e-12 	0 	0
0.413438 	99997.6 	1.161 	-7.56794e-14 	0 	0
0.414437 	99997.6 	1.161 	8.59622e-12 	0 	0
0.415437 	99997.6 	1.161 	1.30845e-11 	0 	0
0.416437 	99997.6 	1.161 	5.74842e-12 	0 	0
0.417437 	99997.6 	1.161 	-6.95554e-12 	0 	0
0.418437 	99997.6 	1.161 	3.49386e-13 	-8.62104e-16 	8.62104e-16
0.419437 	99997.6 	1.161 	2.42145e-11 	8.5523e-16 	-8.5523e-16
0.420436 	99997.6 	1.161 	3.78461e-11 	0 	0
0.421436 	99997.6 	1.161 	4.32676e-11 	0 	0
0.422436 	99997.6 	1.161 	2.50416e-11 	-1.26877e-15 	1.26877e-15
0.423436 	99997.6 	1.161 	1.59746e-11 	-4.35249e-18 	4.35249e-18
0.424436 	99997.6 	1.161 	1.34812e-11 	-1.25888e-15 	1.25888e-15
0.425436 	99997.6 	1.161 	-8.86522e-13 	-4.07145e-18 	4.07145e-18
0.426436 	99997.6 	1.161 	-1.66901e-11 	-1.24356e-15 	1.24356e-15
0.427435 	99997.6 	1.161 	-2.43505e-11 	0 	0
0.428435 	99997.6 	1.161 	-1.28986e-11 	-8.22038e-16 	8.22038e-16
0.429435 	99997.6 	1.161 	-6.98593e-12 	8.16235e-16 	-8.16235e-16
0.430435 	99997.6 	1.161 	-8.91069e-12 	0 	0
0.431435 	99997.6 	1.161 	-3.08907e-11 	1.21481e-15 	-1.21481e-15
0.432435 	99997.6 	1.161 	-3.40424e-11 	-8.05241e-19 	8.05241e-19
0.433434 	99997.6 	1.161 	-2.17076e-11 	1.20262e-15 	-1.20262e-15
0.434434 	99997.6 	1.161 	-3.73318e-12 	0 	0
0.435434 	99997.6 	1.161 	1.77058e-11 	7.96096e-16 	-7.96096e-16
0.436434 	99997.6 	1.161 	2.96823e-11 	-7.90007e-16 	7.90007e-16
0.437434 	99997.6 	1.161 	2.78426e-11 	0 	0
0.438434 	99997.6 	1.161 	8.47473e-12 	-9.22231e-16 	9.22231e-16
0.439434 	99997.6 	1.161 	-6.0485e-12 	-4.1856e-15 	4.1856e-15
0.440433 	99997.6 	1.161 	-1.86575e-12 	-9.76724e-15 	9.76724e-15
0.441433 	99997.6 	1.161 	1.05762e-11 	-8.35237e-15 	8.35237e-15
0.442433 	99997.6 	1.161 	-7.8059e-12 	0 	0
0.443433 	99997.6 	1.161 	-3.52259e-11 	8.27346e-15 	-8.27346e-15
0.444433 	99997.6 	1.161 	-2.3846e-11 	9.62854e-15 	-9.62854e-15
0.445433 	99997.6 	1.161 	-9.63426e-12 	4.13094e-15 	-4.13094e-15
0.446433 	99997.6 	1.161 	-1.00743e-11 	9.27119e-16 	-9.27119e-16
0.447432 	99997.6 	1.161 	1.71027e-11 	0 	0
0.448432 	99997.6 	1.161 	4.46047e-11 	9.54766e-16 	-9.54766e-16
0.449432 	99997.6 	1.161 	4.78653e-11 	4.14547e-15 	-4.14547e-15
0.450432 	99997.6 	1.161 	2.60533e-11 	6.24716e-16 	-6.24716e-16
0.451432 	99997.6 	1.161 	2.25901e-11 	-1.86578e-15 	1.86578e-15
0.452432 	99997.6 	1.161 	3.08323e-11 	-6.55788e-15 	6.55788e-15
0.453431 	99997.6 	1.161 	1.97795e-11 	-4.62021e-15 	4.62021e-15
0.454431 	99997.6 	1.161 	1.85834e-11 	-4.88407e-15 	4.88407e-15
0.455431 	99997.6 	1.161 	1.50547e-11 	-7.32921e-15 	7.32921e-15
0.456431 	99997.6 	1.161 	9.42834e-12 	-1.19373e-14 	1.19373e-14
0.457431 	99997.6 	1.161 	9.94128e-12 	-1.86892e-14 	1.86892e-14
0.458431 	99997.6 	1.161 	8.52344e-12 	-2.72544e-14 	2.72544e-14
0.459431 	99997.6 	1.161 	-8.95764e-12 	-2.96853e-14 	2.96853e-14
0.46043 	99997.6 	1.161 	-2.26532e-11 	-2.97764e-14 	2.97764e-14
0.46143 	99997.6 	1.161 	-2.5764e-11 	-2.67002e-14 	2.67002e-14
0.46243 	99997.6 	1.161 	-3.4413e-11 	-1.73069e-14 	1.73069e-14
0.46343 	99997.6 	1.161 	-3.06692e-11 	-9.80134e-15 	9.80134e-15
0.46443 	99997.6 	1.161 	-1.84497e-11 	-4.42715e-15 	4.42715e-15
0.46543 	99997.6 	1.161 	-1.39067e-11 	-1.16634e-15 	1.16634e-15
0.466429 	99997.6 	1.161 	1.94759e-12 	0 	0
0.467429 	99997.6 	1.161 	2.59641e-11 	0 	0
0.468429 	99997.6 	1.161 	1.5758e-11 	0 	0
0.469429 	99997.6 	1.161 	8.80494e-13 	0 	0
0.470429 	99997.6 	1.161 	-5.40316e-12 	0 	0
0.471429 	99997.6 	1.161 	1.47001e-12 	6.73757e-16 	-6.73757e-16
0.472429 	99997.6 	1.161 	1.14744e-11 	3.28773e-15 	-3.28773e-15
0.473428 	99997.6 	1.161 	-8.16615e-12 	-1.70447e-16 	1.70447e-16
0.474428 	99997.6 	1.161 	-3.09119e-11 	-5.62361e-15 	5.62361e-15
0.475428 	99997.6 	1.161 	-3.19936e-11 	-5.04451e-15 	5.04451e-15
0.476428 	99997.6 	1.161 	-1.39275e-11 	-6.46143e-15 	6.46143e-15
0.477428 	99997.6 	1.161 	6.06224e-14 	-1.91121e-15 	1.91121e-15
0.478428 	99997.6 	1.161 	1.40322e-13 	6.41744e-16 	-6.41744e-16
0.479427 	99997.6 	1.161 	-1.19671e-11 	3.70601e-15 	-3.70601e-15
0.480427 	99997.6 	1.161 	-3.02786e-11 	8.70948e-16 	-8.70948e-16
0.481427 	99997.6 	1.161 	-3.00205e-11 	0 	0
0.482427 	99997.6 	1.161 	-1.37666e-11 	0 	0
0.483427 	99997.6 	1.161 	-1.72868e-11 	-3.60994e-16 	3.60994e-16
0.484427 	99997.6 	1.161 	-2.15348e-11 	-2.64956e-15 	2.64956e-15
0.485427 	99997.6 	1.161 	-1.81909e-12 	-6.84941e-15 	6.84941e-15
0.486426 	99997.6 	1.161 	1.86938e-11 	-5.29149e-15 	5.29149e-15