/*--------------------------------*- C++ -*----------------------------------*\
| =========                 |                                                 |
| \\      /  F ield         | OpenFOAM: The Open Source CFD Toolbox           |
|  \\    /   O peration     | Version:  2312                                  |
|   \\  /    A nd           | Website:  www.openfoam.com                      |
|    \\/     M anipulation  |                                                 |
\*---------------------------------------------------------------------------*/
FoamFile
{
    version     2.0;
    format      ascii;
    arch        "LSB;label=32;scalar=64";
    class       volScalarField;
    location    "0.004";
    object      p;
}
// * * * * * * * * * * * * * * * * * * * * * * * * * * * * * * * * * * * * * //

dimensions      [1 -1 -2 0 0 0 0];

internalField   nonuniform List<scalar> 
100
(
413684
413658
413612
413531
413396
413175
412826
412294
411510
410394
408856
406808
404164
400853
396824
392052
386536
380300
373391
365871
357813
349295
340398
331201
321777
312196
302519
292801
283091
273432
263860
254407
245101
235965
227018
218280
209765
201488
193463
185702
178218
171027
164144
157589
151384
145556
140139
135171
130694
126754
123389
120625
118459
116854
115737
115011
114570
114322
114192
114131
114107
114105
114112
114126
114143
114162
114182
114202
114222
114241
114261
114280
114299
114318
114337
114356
114375
114395
114415
114437
114459
114483
114509
114536
114565
114597
114631
114667
114707
114749
114795
114838
114848
114681
113855
111140
104397
91843.7
74931.2
59099.8
)
;

boundaryField
{
    sides
    {
        type            zeroGradient;
    }
    empty
    {
        type            empty;
    }
}


// ************************************************************************* //
