/*--------------------------------*- C++ -*----------------------------------*\
| =========                 |                                                 |
| \\      /  F ield         | OpenFOAM: The Open Source CFD Toolbox           |
|  \\    /   O peration     | Version:  2312                                  |
|   \\  /    A nd           | Website:  www.openfoam.com                      |
|    \\/     M anipulation  |                                                 |
\*---------------------------------------------------------------------------*/
FoamFile
{
    version     2.0;
    format      ascii;
    arch        "LSB;label=32;scalar=64";
    class       volScalarField;
    location    "0.004";
    object      rho;
}
// * * * * * * * * * * * * * * * * * * * * * * * * * * * * * * * * * * * * * //

dimensions      [1 -3 0 0 0 0 0];

internalField   nonuniform List<scalar> 
100
(
1.16097
1.16093
1.16085
1.16072
1.1605
1.16013
1.15955
1.15867
1.15736
1.1555
1.15294
1.14951
1.14508
1.1395
1.13269
1.12458
1.11514
1.1044
1.09241
1.07925
1.06501
1.04981
1.03376
1.01697
0.999569
0.98165
0.963314
0.94465
0.925741
0.906658
0.887468
0.868229
0.848994
0.829813
0.810729
0.791784
0.773019
0.754473
0.736185
0.718197
0.700554
0.683307
0.666513
0.65024
0.634569
0.619598
0.605441
0.592234
0.580127
0.569278
0.559831
0.551883
0.545453
0.540443
0.53664
0.533737
0.531375
0.529182
0.526786
0.5238
0.519802
0.514315
0.50683
0.496859
0.484029
0.468177
0.449432
0.428226
0.405255
0.381378
0.357493
0.334424
0.312845
0.293237
0.275887
0.260907
0.248269
0.237845
0.229435
0.222804
0.217694
0.213854
0.211042
0.20904
0.207659
0.206738
0.20615
0.205795
0.205597
0.205503
0.205475
0.205483
0.205477
0.205296
0.204424
0.201545
0.194315
0.180516
0.161015
0.141269
)
;

boundaryField
{
    sides
    {
        type            zeroGradient;
    }
    empty
    {
        type            empty;
    }
}


// ************************************************************************* //
