/*--------------------------------*- C++ -*----------------------------------*\
| =========                 |                                                 |
| \\      /  F ield         | OpenFOAM: The Open Source CFD Toolbox           |
|  \\    /   O peration     | Version:  2312                                  |
|   \\  /    A nd           | Website:  www.openfoam.com                      |
|    \\/     M anipulation  |                                                 |
\*---------------------------------------------------------------------------*/
FoamFile
{
    version     2.0;
    format      ascii;
    arch        "LSB;label=32;scalar=64";
    class       volScalarField;
    location    "0.004";
    object      T;
}
// * * * * * * * * * * * * * * * * * * * * * * * * * * * * * * * * * * * * * //

dimensions      [0 0 0 1 0 0 0];

internalField   nonuniform List<scalar> 
100
(
299.992
299.984
299.97
299.947
299.906
299.841
299.737
299.58
299.347
299.015
298.558
297.948
297.158
296.165
294.952
293.507
291.825
289.909
287.767
285.41
282.856
280.121
277.225
274.186
271.023
267.753
264.392
260.954
257.454
253.904
250.314
246.694
243.055
239.403
235.748
232.097
228.458
224.838
221.245
217.689
214.177
210.723
207.339
204.04
200.846
197.781
194.873
192.155
189.669
187.456
185.56
184.015
182.841
182.036
181.574
181.416
181.524
181.881
182.501
183.443
184.816
186.783
189.555
193.382
198.538
205.293
213.893
224.524
237.292
252.192
269.088
287.698
307.594
328.215
348.914
369.009
387.858
404.927
419.844
432.422
442.657
450.701
456.808
461.292
464.48
466.676
468.146
469.104
469.717
470.106
470.355
470.515
470.568
470.297
468.903
464.26
452.321
428.349
391.796
352.212
)
;

boundaryField
{
    sides
    {
        type            zeroGradient;
    }
    empty
    {
        type            empty;
    }
}


// ************************************************************************* //
