/*--------------------------------*- C++ -*----------------------------------*\
| =========                 |                                                 |
| \\      /  F ield         | OpenFOAM: The Open Source CFD Toolbox           |
|  \\    /   O peration     | Version:  2312                                  |
|   \\  /    A nd           | Website:  www.openfoam.com                      |
|    \\/     M anipulation  |                                                 |
\*---------------------------------------------------------------------------*/
FoamFile
{
    version     2.0;
    format      ascii;
    arch        "LSB;label=32;scalar=64";
    class       volScalarField;
    location    "0.004";
    object      thermo:e;
}
// * * * * * * * * * * * * * * * * * * * * * * * * * * * * * * * * * * * * * //

dimensions      [0 2 -2 0 0 0 0];

internalField   nonuniform List<scalar> 
100
(
515386
515373
515349
515308
515239
515127
514949
514678
514278
513708
512923
511874
510517
508811
506727
504244
501355
498064
494383
490335
485946
481248
476272
471052
465617
459999
454225
448320
442306
436207
430039
423821
417568
411295
405016
398743
392491
386272
380099
373989
367957
362022
356208
350541
345054
339788
334791
330123
325851
322050
318792
316138
314121
312737
311944
311672
311858
312471
313536
315154
317514
320893
325655
332230
341088
352694
367468
385733
407668
433266
462293
494266
528446
563874
599435
633957
666340
695665
721291
742900
760485
774304
784796
792500
797977
801750
804275
805921
806973
807641
808071
808345
808435
807971
805576
797599
777087
735903
673105
605099
)
;

boundaryField
{
    sides
    {
        type            zeroGradient;
    }
    empty
    {
        type            empty;
    }
}


// ************************************************************************* //
