/*--------------------------------*- C++ -*----------------------------------*\
| =========                 |                                                 |
| \\      /  F ield         | OpenFOAM: The Open Source CFD Toolbox           |
|  \\    /   O peration     | Version:  2312                                  |
|   \\  /    A nd           | Website:  www.openfoam.com                      |
|    \\/     M anipulation  |                                                 |
\*---------------------------------------------------------------------------*/
FoamFile
{
    version     2.0;
    format      ascii;
    arch        "LSB;label=32;scalar=64";
    class       volVectorField;
    location    "0.004";
    object      U;
}
// * * * * * * * * * * * * * * * * * * * * * * * * * * * * * * * * * * * * * //

dimensions      [0 1 -1 0 0 0 0];

internalField   nonuniform List<vector> 
100
(
(0.0309547 0 0)
(0.0593738 0 0)
(0.110551 0 0)
(0.199772 0 0)
(0.350298 0 0)
(0.595957 0 0)
(0.98367 0 0)
(1.57532 0 0)
(2.44833 0 0)
(3.69419 0 0)
(5.41478 0 0)
(7.71635 0 0)
(10.7021 0 0)
(14.4641 0 0)
(19.077 0 0)
(24.5925 0 0)
(31.0378 0 0)
(38.4156 0 0)
(46.7073 0 0)
(55.8766 0 0)
(65.8742 0 0)
(76.6428 0 0)
(88.1202 0 0)
(100.243 0 0)
(112.95 0 0)
(126.181 0 0)
(139.88 0 0)
(153.997 0 0)
(168.483 0 0)
(183.296 0 0)
(198.396 0 0)
(213.747 0 0)
(229.314 0 0)
(245.066 0 0)
(260.973 0 0)
(277.002 0 0)
(293.124 0 0)
(309.306 0 0)
(325.513 0 0)
(341.704 0 0)
(357.834 0 0)
(373.847 0 0)
(389.677 0 0)
(405.243 0 0)
(420.443 0 0)
(435.152 0 0)
(449.217 0 0)
(462.457 0 0)
(474.663 0 0)
(485.615 0 0)
(495.106 0 0)
(502.984 0 0)
(509.191 0 0)
(513.799 0 0)
(517.007 0 0)
(519.096 0 0)
(520.374 0 0)
(521.111 0 0)
(521.517 0 0)
(521.736 0 0)
(521.852 0 0)
(521.916 0 0)
(521.954 0 0)
(521.98 0 0)
(522 0 0)
(522.021 0 0)
(522.043 0 0)
(522.069 0 0)
(522.098 0 0)
(522.133 0 0)
(522.173 0 0)
(522.219 0 0)
(522.27 0 0)
(522.327 0 0)
(522.39 0 0)
(522.459 0 0)
(522.535 0 0)
(522.617 0 0)
(522.707 0 0)
(522.804 0 0)
(522.91 0 0)
(523.024 0 0)
(523.148 0 0)
(523.282 0 0)
(523.427 0 0)
(523.584 0 0)
(523.754 0 0)
(523.937 0 0)
(524.135 0 0)
(524.349 0 0)
(524.577 0 0)
(524.785 0 0)
(524.771 0 0)
(523.671 0 0)
(518.653 0 0)
(502.738 0 0)
(463.852 0 0)
(389.823 0 0)
(281.108 0 0)
(161.826 0 0)
)
;

boundaryField
{
    sides
    {
        type            zeroGradient;
    }
    empty
    {
        type            empty;
    }
}


// ************************************************************************* //
