/*--------------------------------*- C++ -*----------------------------------*\
| =========                 |                                                 |
| \\      /  F ield         | OpenFOAM: The Open Source CFD Toolbox           |
|  \\    /   O peration     | Version:  2312                                  |
|   \\  /    A nd           | Website:  www.openfoam.com                      |
|    \\/     M anipulation  |                                                 |
\*---------------------------------------------------------------------------*/
FoamFile
{
    version     2.0;
    format      ascii;
    arch        "LSB;label=32;scalar=64";
    class       volScalarField;
    location    "0.009";
    object      p;
}
// * * * * * * * * * * * * * * * * * * * * * * * * * * * * * * * * * * * * * //

dimensions      [1 -1 -2 0 0 0 0];

internalField   nonuniform List<scalar> 
100
(
110272
110238
110186
110104
109981
109802
109550
109205
108748
108161
107427
106533
105474
104247
102856
101308
99615.8
97794.3
95859.7
93829.1
91719.9
89548.3
87329.3
85076.8
82803.4
80520.4
78237.5
75963.3
73705.2
71469.4
69261.4
67085.7
64946.1
62846.8
60789.9
58777.3
56811.3
54893.3
53025
51207.5
49442.2
47730.3
46073
44472.1
42929.9
41447.5
40027.8
38674
37390.2
36181.9
35055.4
34018.5
33080.1
32249.2
31534.1
30940.6
30468
30118.5
29872.6
29707.2
29601.5
29537.2
29500
29479.6
29468.9
29463.7
29461.4
29460.6
29460.7
29461.2
29462
29462.8
29463.8
29464.8
29465.8
29466.8
29467.9
29469.1
29470.2
29471.4
29472.7
29474
29475.3
29476.8
29478.3
29480
29481.8
29483.8
29485.9
29488.2
29490.7
29493.3
29496.2
29499.4
29503.9
29514.7
29548.5
29642.4
29812.5
29484.8
)
;

boundaryField
{
    sides
    {
        type            zeroGradient;
    }
    empty
    {
        type            empty;
    }
}


// ************************************************************************* //
