/*--------------------------------*- C++ -*----------------------------------*\
| =========                 |                                                 |
| \\      /  F ield         | OpenFOAM: The Open Source CFD Toolbox           |
|  \\    /   O peration     | Version:  2312                                  |
|   \\  /    A nd           | Website:  www.openfoam.com                      |
|    \\/     M anipulation  |                                                 |
\*---------------------------------------------------------------------------*/
FoamFile
{
    version     2.0;
    format      ascii;
    arch        "LSB;label=32;scalar=64";
    class       volScalarField;
    location    "0.009";
    object      p;
}
// * * * * * * * * * * * * * * * * * * * * * * * * * * * * * * * * * * * * * //

dimensions      [1 -1 -2 0 0 0 0];

internalField   nonuniform List<scalar> 
100
(
99178.5
99172
99160.4
99140.5
99107.1
99053.2
98969
98841.5
98655.2
98391.8
98031.5
97554.5
96942.2
96179.6
95256.2
94166.8
92912.3
91498.7
89936.8
88240.6
86426.5
84512.1
82514.9
80452.2
78340.1
76193.6
74025.9
71849
69673.2
67508
65361.3
63239.2
61147.4
59090.6
57073
55097.9
53168.3
51286.8
49455.7
47676.9
45953.4
44286.2
42677.4
41129.3
39644.6
38226.6
36879.3
35607.8
34418.1
33317.7
32316
31421.5
30643.2
29988.4
29459.6
29053.1
28757.5
28555
28424.4
28345.1
28299.3
28274.1
28260.8
28254.1
28250.9
28249.6
28249.4
28249.7
28250.5
28251.4
28252.4
28253.5
28254.7
28255.9
28257.1
28258.3
28259.6
28261
28262.3
28263.8
28265.3
28266.9
28268.6
28270.4
28272.4
28274.6
28276.9
28279.4
28282.2
28285.2
28288.4
28292
28296.8
28304
28310.7
28282.3
28066.2
27251.1
25206.7
21607.1
)
;

boundaryField
{
    sides
    {
        type            zeroGradient;
    }
    empty
    {
        type            empty;
    }
}


// ************************************************************************* //
