/*--------------------------------*- C++ -*----------------------------------*\
| =========                 |                                                 |
| \\      /  F ield         | OpenFOAM: The Open Source CFD Toolbox           |
|  \\    /   O peration     | Version:  2312                                  |
|   \\  /    A nd           | Website:  www.openfoam.com                      |
|    \\/     M anipulation  |                                                 |
\*---------------------------------------------------------------------------*/
FoamFile
{
    version     2.0;
    format      ascii;
    arch        "LSB;label=32;scalar=64";
    class       volScalarField;
    location    "0.009";
    object      rho;
}
// * * * * * * * * * * * * * * * * * * * * * * * * * * * * * * * * * * * * * //

dimensions      [1 -3 0 0 0 0 0];

internalField   nonuniform List<scalar> 
100
(
1.16096
1.16091
1.16081
1.16064
1.16036
1.15991
1.15921
1.15814
1.15658
1.15437
1.15135
1.14734
1.14218
1.13574
1.12792
1.11866
1.10796
1.09584
1.08238
1.06769
1.05188
1.03508
1.01744
0.999081
0.980139
0.960734
0.940973
0.920957
0.900774
0.880507
0.860225
0.839985
0.819841
0.799839
0.780021
0.760424
0.741083
0.722029
0.703289
0.684894
0.666882
0.649271
0.632095
0.615389
0.599196
0.583565
0.568555
0.554238
0.540702
0.52805
0.516413
0.505909
0.496669
0.488795
0.482337
0.477262
0.473439
0.470654
0.468645
0.46714
0.465894
0.464692
0.463339
0.461634
0.459347
0.456203
0.451882
0.446045
0.438388
0.428704
0.416944
0.40325
0.387971
0.371611
0.354764
0.338044
0.322005
0.307104
0.293662
0.281876
0.271814
0.263447
0.256671
0.251326
0.247223
0.244159
0.241939
0.240378
0.239317
0.238621
0.238183
0.237922
0.237782
0.237729
0.237717
0.23752
0.236211
0.231293
0.21883
0.196336
)
;

boundaryField
{
    sides
    {
        type            zeroGradient;
    }
    empty
    {
        type            empty;
    }
}


// ************************************************************************* //
