/*--------------------------------*- C++ -*----------------------------------*\
| =========                 |                                                 |
| \\      /  F ield         | OpenFOAM: The Open Source CFD Toolbox           |
|  \\    /   O peration     | Version:  2312                                  |
|   \\  /    A nd           | Website:  www.openfoam.com                      |
|    \\/     M anipulation  |                                                 |
\*---------------------------------------------------------------------------*/
FoamFile
{
    version     2.0;
    format      ascii;
    arch        "LSB;label=32;scalar=64";
    class       volScalarField;
    location    "0.009";
    object      rho;
}
// * * * * * * * * * * * * * * * * * * * * * * * * * * * * * * * * * * * * * //

dimensions      [1 -3 0 0 0 0 0];

internalField   nonuniform List<scalar> 
100
(
1.11567
1.11543
1.11505
1.11445
1.11356
1.11227
1.11044
1.10794
1.10463
1.10035
1.095
1.08848
1.08072
1.07169
1.06142
1.04994
1.03733
1.02368
1.00909
0.993693
0.97759
0.960894
0.94371
0.926134
0.908258
0.89016
0.871913
0.853581
0.83522
0.816879
0.798603
0.780428
0.762389
0.744523
0.726849
0.709389
0.692166
0.675199
0.658506
0.642104
0.626013
0.610249
0.594833
0.57979
0.565149
0.550932
0.537177
0.523926
0.511235
0.499168
0.487807
0.477245
0.46759
0.458954
0.451439
0.445121
0.440006
0.436126
0.433281
0.431229
0.429743
0.42862
0.427689
0.426809
0.425861
0.424729
0.423288
0.421385
0.418832
0.415404
0.410852
0.40493
0.397509
0.388572
0.378215
0.366674
0.3543
0.341511
0.328756
0.316453
0.304953
0.294526
0.285337
0.277463
0.2709
0.265578
0.261381
0.258164
0.255769
0.254039
0.252829
0.252012
0.25148
0.251149
0.25096
0.250897
0.251029
0.251543
0.252457
0.250219
)
;

boundaryField
{
    sides
    {
        type            zeroGradient;
    }
    empty
    {
        type            empty;
    }
}


// ************************************************************************* //
