/*--------------------------------*- C++ -*----------------------------------*\
| =========                 |                                                 |
| \\      /  F ield         | OpenFOAM: The Open Source CFD Toolbox           |
|  \\    /   O peration     | Version:  2312                                  |
|   \\  /    A nd           | Website:  www.openfoam.com                      |
|    \\/     M anipulation  |                                                 |
\*---------------------------------------------------------------------------*/
FoamFile
{
    version     2.0;
    format      ascii;
    arch        "LSB;label=32;scalar=64";
    class       volScalarField;
    location    "0.009";
    object      T;
}
// * * * * * * * * * * * * * * * * * * * * * * * * * * * * * * * * * * * * * //

dimensions      [0 0 0 1 0 0 0];

internalField   nonuniform List<scalar> 
100
(
299.994
299.988
299.978
299.96
299.93
299.883
299.808
299.695
299.529
299.295
298.975
298.549
298.001
297.316
296.483
295.493
294.344
293.039
291.581
289.979
288.244
286.386
284.418
282.352
280.199
277.971
275.677
273.327
270.929
268.491
266.021
263.524
261.005
258.47
255.924
253.371
250.815
248.261
245.712
243.174
240.651
238.149
235.672
233.228
230.824
228.471
226.181
223.969
221.853
219.856
218.005
216.33
214.86
213.625
212.644
211.921
211.447
211.194
211.128
211.219
211.448
211.815
212.347
213.1
214.163
215.667
217.781
220.707
224.667
229.882
236.543
244.795
254.698
266.217
279.203
293.39
308.402
323.775
339.001
353.565
367.015
378.997
389.287
397.806
404.609
409.849
413.743
416.536
418.473
419.77
420.61
421.139
421.466
421.672
421.796
421.721
420.797
417.171
407.615
388.982
)
;

boundaryField
{
    sides
    {
        type            zeroGradient;
    }
    empty
    {
        type            empty;
    }
}


// ************************************************************************* //
