/*--------------------------------*- C++ -*----------------------------------*\
| =========                 |                                                 |
| \\      /  F ield         | OpenFOAM: The Open Source CFD Toolbox           |
|  \\    /   O peration     | Version:  2312                                  |
|   \\  /    A nd           | Website:  www.openfoam.com                      |
|    \\/     M anipulation  |                                                 |
\*---------------------------------------------------------------------------*/
FoamFile
{
    version     2.0;
    format      ascii;
    arch        "LSB;label=32;scalar=64";
    class       volScalarField;
    location    "0.009";
    object      T;
}
// * * * * * * * * * * * * * * * * * * * * * * * * * * * * * * * * * * * * * //

dimensions      [0 0 0 1 0 0 0];

internalField   nonuniform List<scalar> 
100
(
348.389
348.359
348.31
348.234
348.12
347.954
347.72
347.4
346.975
346.427
345.739
344.899
343.898
342.73
341.395
339.897
338.242
336.44
334.502
332.439
330.265
327.992
325.629
323.19
320.683
318.117
315.502
312.843
310.15
307.426
304.678
301.91
299.128
296.336
293.537
290.735
287.933
285.134
282.342
279.56
276.792
274.042
271.314
268.615
265.951
263.328
260.756
258.246
255.812
253.471
251.243
249.156
247.237
245.52
244.036
242.81
241.857
241.193
240.784
240.586
240.558
240.667
240.893
241.231
241.692
242.309
243.135
244.255
245.783
247.868
250.692
254.46
259.342
265.471
272.939
281.764
291.873
303.1
315.18
327.768
340.465
352.85
364.526
375.16
384.505
392.432
398.921
404.048
407.959
410.842
412.894
414.306
415.247
415.854
416.24
416.502
416.769
417.249
418.147
417.228
)
;

boundaryField
{
    sides
    {
        type            zeroGradient;
    }
    empty
    {
        type            empty;
    }
}


// ************************************************************************* //
