/*--------------------------------*- C++ -*----------------------------------*\
| =========                 |                                                 |
| \\      /  F ield         | OpenFOAM: The Open Source CFD Toolbox           |
|  \\    /   O peration     | Version:  2312                                  |
|   \\  /    A nd           | Website:  www.openfoam.com                      |
|    \\/     M anipulation  |                                                 |
\*---------------------------------------------------------------------------*/
FoamFile
{
    version     2.0;
    format      ascii;
    arch        "LSB;label=32;scalar=64";
    class       volScalarField;
    location    "0.009";
    object      thermo:e;
}
// * * * * * * * * * * * * * * * * * * * * * * * * * * * * * * * * * * * * * //

dimensions      [0 2 -2 0 0 0 0];

internalField   nonuniform List<scalar> 
100
(
247100
247079
247045
246993
246914
246799
246637
246416
246122
245743
245267
244686
243994
243186
242262
241225
240080
238833
237492
236064
234559
232984
231348
229658
227921
226143
224329
222487
220618
218729
216823
214902
212971
211033
209089
207143
205196
203251
201310
199376
197451
195538
193640
191762
189907
188081
186290
184541
182845
181213
179660
178205
176867
175669
174633
173778
173113
172650
172364
172226
172206
172282
172440
172676
172998
173428
174005
174786
175852
177306
179276
181903
185305
189573
194771
200908
207933
215728
224106
232829
241619
250184
258253
265595
272044
277511
281984
285517
288211
290197
291610
292582
293230
293648
293914
294095
294278
294609
295227
294594
)
;

boundaryField
{
    sides
    {
        type            zeroGradient;
    }
    empty
    {
        type            empty;
    }
}


// ************************************************************************* //
