/*--------------------------------*- C++ -*----------------------------------*\
| =========                 |                                                 |
| \\      /  F ield         | OpenFOAM: The Open Source CFD Toolbox           |
|  \\    /   O peration     | Version:  2212                                  |
|   \\  /    A nd           | Website:  www.openfoam.com                      |
|    \\/     M anipulation  |                                                 |
\*---------------------------------------------------------------------------*/
FoamFile
{
    version     2.0;
    format      ascii;
    arch        "LSB;label=32;scalar=64";
    class       volScalarField;
    location    "0.009";
    object      thermo:e;
}
// * * * * * * * * * * * * * * * * * * * * * * * * * * * * * * * * * * * * * //

dimensions      [0 2 -2 0 0 0 0];

internalField   nonuniform List<scalar> 
100
(
213572
213568
213561
213548
213528
213495
213443
213364
213250
213087
212865
212569
212189
211713
211134
210447
209650
208743
207730
206618
205412
204121
202754
201317
199821
198271
196676
195041
193372
191676
189956
188217
186463
184697
182923
181144
179362
177581
175803
174032
172272
170525
168795
167088
165409
163765
162164
160618
159138
157741
156446
155274
154245
153381
152694
152188
151856
151679
151633
151696
151856
152114
152486
153013
153757
154810
156289
158336
161106
164751
169404
175163
182069
190092
199128
208987
219406
230063
240605
250679
259972
268244
275342
281216
285903
289513
292194
294118
295451
296344
296922
297286
297511
297653
297738
297687
297051
294555
287975
275132
)
;

boundaryField
{
    sides
    {
        type            zeroGradient;
    }
    empty
    {
        type            empty;
    }
}


// ************************************************************************* //
