/*--------------------------------*- C++ -*----------------------------------*\
| =========                 |                                                 |
| \\      /  F ield         | OpenFOAM: The Open Source CFD Toolbox           |
|  \\    /   O peration     | Version:  2312                                  |
|   \\  /    A nd           | Website:  www.openfoam.com                      |
|    \\/     M anipulation  |                                                 |
\*---------------------------------------------------------------------------*/
FoamFile
{
    version     2.0;
    format      ascii;
    arch        "LSB;label=32;scalar=64";
    class       volVectorField;
    location    "0.009";
    object      U;
}
// * * * * * * * * * * * * * * * * * * * * * * * * * * * * * * * * * * * * * //

dimensions      [0 1 -1 0 0 0 0];

internalField   nonuniform List<vector> 
100
(
(0.111415 0 0)
(0.191049 0 0)
(0.318396 0 0)
(0.51592 0 0)
(0.812851 0 0)
(1.24546 0 0)
(1.85648 0 0)
(2.69344 0 0)
(3.8062 0 0)
(5.24368 0 0)
(7.05037 0 0)
(9.26324 0 0)
(11.9094 0 0)
(15.0047 0 0)
(18.554 0 0)
(22.5518 0 0)
(26.9837 0 0)
(31.829 0 0)
(37.0622 0 0)
(42.6545 0 0)
(48.5753 0 0)
(54.7959 0 0)
(61.2887 0 0)
(68.0268 0 0)
(74.9851 0 0)
(82.141 0 0)
(89.4734 0 0)
(96.9637 0 0)
(104.595 0 0)
(112.352 0 0)
(120.22 0 0)
(128.188 0 0)
(136.243 0 0)
(144.372 0 0)
(152.567 0 0)
(160.82 0 0)
(169.121 0 0)
(177.46 0 0)
(185.828 0 0)
(194.215 0 0)
(202.61 0 0)
(211 0 0)
(219.37 0 0)
(227.702 0 0)
(235.974 0 0)
(244.164 0 0)
(252.242 0 0)
(260.168 0 0)
(267.893 0 0)
(275.359 0 0)
(282.491 0 0)
(289.203 0 0)
(295.394 0 0)
(300.961 0 0)
(305.804 0 0)
(309.853 0 0)
(313.062 0 0)
(315.436 0 0)
(317.107 0 0)
(318.227 0 0)
(318.941 0 0)
(319.373 0 0)
(319.624 0 0)
(319.763 0 0)
(319.838 0 0)
(319.877 0 0)
(319.897 0 0)
(319.908 0 0)
(319.914 0 0)
(319.917 0 0)
(319.92 0 0)
(319.923 0 0)
(319.925 0 0)
(319.929 0 0)
(319.933 0 0)
(319.938 0 0)
(319.943 0 0)
(319.95 0 0)
(319.957 0 0)
(319.966 0 0)
(319.975 0 0)
(319.986 0 0)
(319.997 0 0)
(320.01 0 0)
(320.024 0 0)
(320.04 0 0)
(320.057 0 0)
(320.076 0 0)
(320.096 0 0)
(320.119 0 0)
(320.143 0 0)
(320.17 0 0)
(320.199 0 0)
(320.23 0 0)
(320.268 0 0)
(320.314 0 0)
(320.196 0 0)
(318.785 0 0)
(312.43 0 0)
(290.226 0 0)
)
;

boundaryField
{
    sides
    {
        type            zeroGradient;
    }
    empty
    {
        type            empty;
    }
}


// ************************************************************************* //
