/*--------------------------------*- C++ -*----------------------------------*\
| =========                 |                                                 |
| \\      /  F ield         | OpenFOAM: The Open Source CFD Toolbox           |
|  \\    /   O peration     | Version:  2212                                  |
|   \\  /    A nd           | Website:  www.openfoam.com                      |
|    \\/     M anipulation  |                                                 |
\*---------------------------------------------------------------------------*/
FoamFile
{
    version     2.0;
    format      ascii;
    arch        "LSB;label=32;scalar=64";
    class       volVectorField;
    location    "0.009";
    object      U;
}
// * * * * * * * * * * * * * * * * * * * * * * * * * * * * * * * * * * * * * //

dimensions      [0 1 -1 0 0 0 0];

internalField   nonuniform List<vector> 
100
(
(0.017997 0 0)
(0.034168 0 0)
(0.062973 0 0)
(0.112694 0 0)
(0.195783 0 0)
(0.33016 0 0)
(0.540418 0 0)
(0.85866 0 0)
(1.32463 0 0)
(1.98483 0 0)
(2.8905 0 0)
(4.0945 0 0)
(5.64759 0 0)
(7.59455 0 0)
(9.97096 0 0)
(12.8009 0 0)
(16.0962 0 0)
(19.8566 0 0)
(24.0716 0 0)
(28.7222 0 0)
(33.7831 0 0)
(39.2253 0 0)
(45.0179 0 0)
(51.1295 0 0)
(57.5295 0 0)
(64.1887 0 0)
(71.0798 0 0)
(78.178 0 0)
(85.4602 0 0)
(92.9039 0 0)
(100.49 0 0)
(108.204 0 0)
(116.029 0 0)
(123.951 0 0)
(131.957 0 0)
(140.033 0 0)
(148.168 0 0)
(156.348 0 0)
(164.561 0 0)
(172.792 0 0)
(181.022 0 0)
(189.239 0 0)
(197.422 0 0)
(205.547 0 0)
(213.585 0 0)
(221.499 0 0)
(229.246 0 0)
(236.769 0 0)
(244.001 0 0)
(250.857 0 0)
(257.239 0 0)
(263.045 0 0)
(268.17 0 0)
(272.524 0 0)
(276.058 0 0)
(278.776 0 0)
(280.748 0 0)
(282.092 0 0)
(282.954 0 0)
(283.476 0 0)
(283.776 0 0)
(283.943 0 0)
(284.033 0 0)
(284.081 0 0)
(284.107 0 0)
(284.121 0 0)
(284.128 0 0)
(284.133 0 0)
(284.136 0 0)
(284.138 0 0)
(284.141 0 0)
(284.144 0 0)
(284.147 0 0)
(284.152 0 0)
(284.157 0 0)
(284.163 0 0)
(284.171 0 0)
(284.179 0 0)
(284.189 0 0)
(284.2 0 0)
(284.213 0 0)
(284.227 0 0)
(284.243 0 0)
(284.26 0 0)
(284.279 0 0)
(284.3 0 0)
(284.324 0 0)
(284.35 0 0)
(284.378 0 0)
(284.408 0 0)
(284.442 0 0)
(284.48 0 0)
(284.533 0 0)
(284.612 0 0)
(284.655 0 0)
(284.15 0 0)
(281.044 0 0)
(270.117 0 0)
(242.868 0 0)
(190.273 0 0)
)
;

boundaryField
{
    sides
    {
        type            zeroGradient;
    }
    empty
    {
        type            empty;
    }
}


// ************************************************************************* //
