0.01 	1.66527e+08 	4498.03
0.03 	1.66129e+08 	4494.92
0.05 	1.65732e+08 	4491.81
0.07 	1.65335e+08 	4488.7
0.09 	1.64939e+08 	4485.59
0.11 	1.64545e+08 	4482.49
0.13 	1.64151e+08 	4479.38
0.15 	1.63758e+08 	4476.28
0.17 	1.63365e+08 	4473.18
0.19 	1.62974e+08 	4470.09
0.21 	1.62584e+08 	4466.99
0.23 	1.62194e+08 	4463.9
0.25 	1.61805e+08 	4460.81
0.27 	1.61417e+08 	4457.72
0.29 	1.6103e+08 	4454.63
0.31 	1.60644e+08 	4451.55
0.33 	1.60259e+08 	4448.46
0.35 	1.59875e+08 	4445.38
0.37 	1.59491e+08 	4442.3
0.39 	1.59108e+08 	4439.23
0.41 	1.58727e+08 	4436.15
0.43 	1.58345e+08 	4433.08
0.45 	1.57965e+08 	4430.01
0.47 	1.57586e+08 	4426.94
0.49 	1.57208e+08 	4423.87
0.51 	1.5683e+08 	4420.8
0.53 	1.56453e+08 	4417.74
0.55 	1.56077e+08 	4414.68
0.57 	1.55702e+08 	4411.62
0.59 	1.55328e+08 	4408.56
0.61 	1.54954e+08 	4405.51
0.63 	1.54582e+08 	4402.45
0.65 	1.5421e+08 	4399.4
0.67 	1.53839e+08 	4396.35
0.69 	1.53469e+08 	4393.31
0.71 	1.531e+08 	4390.26
0.73 	1.52731e+08 	4387.22
0.75 	1.52364e+08 	4384.17
0.77 	1.51997e+08 	4381.13
0.79 	1.51631e+08 	4378.1
0.81 	1.51266e+08 	4375.06
0.83 	1.50902e+08 	4372.03
0.85 	1.50538e+08 	4369
0.87 	1.50175e+08 	4365.97
0.89 	1.49813e+08 	4362.94
0.91 	1.49452e+08 	4359.91
0.93 	1.49092e+08 	4356.89
0.95 	1.48733e+08 	4353.86
0.97 	1.48374e+08 	4350.84
0.99 	1.48016e+08 	4347.83
1.01 	1.47659e+08 	4344.81
1.03 	1.47303e+08 	4341.8
1.05 	1.46947e+08 	4338.78
1.07 	1.46593e+08 	4335.77
1.09 	1.46239e+08 	4332.76
1.11 	1.45886e+08 	4329.76
1.13 	1.45534e+08 	4326.75
1.15 	1.45182e+08 	4323.75
1.17 	1.44832e+08 	4320.75
1.19 	1.44482e+08 	4317.75
1.21 	1.44133e+08 	4314.75
1.23 	1.43784e+08 	4311.76
1.25 	1.43437e+08 	4308.76
1.27 	1.4309e+08 	4305.77
1.29 	1.42744e+08 	4302.78
1.31 	1.42399e+08 	4299.8
1.33 	1.42055e+08 	4296.81
1.35 	1.41711e+08 	4293.83
1.37 	1.41368e+08 	4290.85
1.39 	1.41026e+08 	4287.87
1.41 	1.40685e+08 	4284.89
1.43 	1.40344e+08 	4281.91
1.45 	1.40004e+08 	4278.94
1.47 	1.39666e+08 	4275.97
1.49 	1.39327e+08 	4273
1.51 	1.3899e+08 	4270.03
1.53 	1.38653e+08 	4267.06
1.55 	1.38317e+08 	4264.1
1.57 	1.37982e+08 	4261.14
1.59 	1.37648e+08 	4258.18
1.61 	1.37314e+08 	4255.22
1.63 	1.36981e+08 	4252.26
1.65 	1.36649e+08 	4249.31
1.67 	1.36318e+08 	4246.35
1.69 	1.35987e+08 	4243.4
1.71 	1.35657e+08 	4240.45
1.73 	1.35328e+08 	4237.51
1.75 	1.35e+08 	4234.56
1.77 	1.34672e+08 	4231.62
1.79 	1.34345e+08 	4228.68
1.81 	1.34019e+08 	4225.74
1.83 	1.33693e+08 	4222.8
1.85 	1.33369e+08 	4219.86
1.87 	1.33045e+08 	4216.93
1.89 	1.32722e+08 	4214
1.91 	1.32399e+08 	4211.07
1.93 	1.32077e+08 	4208.14
1.95 	1.31756e+08 	4205.21
1.97 	1.31436e+08 	4202.29
1.99 	1.31116e+08 	4199.37
2.01 	1.30798e+08 	4196.45
2.03 	1.3048e+08 	4193.53
2.05 	1.30162e+08 	4190.61
2.07 	1.29846e+08 	4187.7
2.09 	1.2953e+08 	4184.78
2.11 	1.29214e+08 	4181.87
2.13 	1.289e+08 	4178.96
2.15 	1.28586e+08 	4176.06
2.17 	1.28273e+08 	4173.15
2.19 	1.27961e+08 	4170.25
2.21 	1.27649e+08 	4167.34
2.23 	1.27338e+08 	4164.45
2.25 	1.27028e+08 	4161.55
2.27 	1.26718e+08 	4158.65
2.29 	1.2641e+08 	4155.76
2.31 	1.26102e+08 	4152.86
2.33 	1.25794e+08 	4149.97
2.35 	1.25488e+08 	4147.09
2.37 	1.25182e+08 	4144.2
2.39 	1.24876e+08 	4141.31
2.41 	1.24572e+08 	4138.43
2.43 	1.24268e+08 	4135.55
2.45 	1.23965e+08 	4132.67
2.47 	1.23662e+08 	4129.79
2.49 	1.2336e+08 	4126.92
2.51 	1.23059e+08 	4124.04
2.53 	1.22759e+08 	4121.17
2.55 	1.22459e+08 	4118.3
2.57 	1.2216e+08 	4115.44
2.59 	1.21862e+08 	4112.57
2.61 	1.21564e+08 	4109.71
2.63 	1.21267e+08 	4106.84
2.65 	1.20971e+08 	4103.98
2.67 	1.20675e+08 	4101.12
2.69 	1.2038e+08 	4098.27
2.71 	1.20086e+08 	4095.41
2.73 	1.19792e+08 	4092.56
2.75 	1.19499e+08 	4089.71
2.77 	1.19207e+08 	4086.86
2.79 	1.18915e+08 	4084.01
2.81 	1.18624e+08 	4081.16
2.83 	1.18334e+08 	4078.32
2.85 	1.18045e+08 	4075.48
2.87 	1.17756e+08 	4072.64
2.89 	1.17467e+08 	4069.8
2.91 	1.1718e+08 	4066.96
2.93 	1.16893e+08 	4064.13
2.95 	1.16607e+08 	4061.3
2.97 	1.16321e+08 	4058.47
2.99 	1.16036e+08 	4055.64
3.01 	1.15752e+08 	4052.81
3.03 	1.15468e+08 	4049.98
3.05 	1.15185e+08 	4047.16
3.07 	1.14903e+08 	4044.34
3.09 	1.14621e+08 	4041.52
3.11 	1.1434e+08 	4038.7
3.13 	1.1406e+08 	4035.88
3.15 	1.1378e+08 	4033.07
3.17 	1.13501e+08 	4030.26
3.19 	1.13222e+08 	4027.45
3.21 	1.12945e+08 	4024.64
3.23 	1.12667e+08 	4021.83
3.25 	1.12391e+08 	4019.02
3.27 	1.12115e+08 	4016.22
3.29 	1.1184e+08 	4013.42
3.31 	1.11565e+08 	4010.62
3.33 	1.11291e+08 	4007.82
3.35 	1.11018e+08 	4005.03
3.37 	1.10745e+08 	4002.23
3.39 	1.10473e+08 	3999.44
3.41 	1.10202e+08 	3996.65
3.43 	1.09931e+08 	3993.86
3.45 	1.09661e+08 	3991.07
3.47 	1.09391e+08 	3988.29
3.49 	1.09122e+08 	3985.5
3.51 	1.08854e+08 	3982.72
3.53 	1.08586e+08 	3979.94
3.55 	1.08319e+08 	3977.16
3.57 	1.08053e+08 	3974.39
3.59 	1.07787e+08 	3971.61
3.61 	1.07521e+08 	3968.84
3.63 	1.07257e+08 	3966.07
3.65 	1.06993e+08 	3963.3
3.67 	1.0673e+08 	3960.53
3.69 	1.06467e+08 	3957.77
3.71 	1.06205e+08 	3955.01
3.73 	1.05943e+08 	3952.24
3.75 	1.05682e+08 	3949.48
3.77 	1.05422e+08 	3946.73
3.79 	1.05162e+08 	3943.97
3.81 	1.04903e+08 	3941.22
3.83 	1.04644e+08 	3938.46
3.85 	1.04386e+08 	3935.71
3.87 	1.04129e+08 	3932.96
3.89 	1.03872e+08 	3930.22
3.91 	1.03616e+08 	3927.47
3.93 	1.03361e+08 	3924.73
3.95 	1.03106e+08 	3921.98
3.97 	1.02851e+08 	3919.24
3.99 	1.02598e+08 	3916.51
4.01 	1.02344e+08 	3913.77
4.03 	1.02092e+08 	3911.03
4.05 	1.0184e+08 	3908.3
4.07 	1.01589e+08 	3905.57
4.09 	1.01338e+08 	3902.84
4.11 	1.01087e+08 	3900.11
4.13 	1.00838e+08 	3897.39
4.15 	1.00589e+08 	3894.66
4.17 	1.0034e+08 	3891.94
4.19 	1.00092e+08 	3889.22
4.21 	9.9845e+07 	3886.5
4.23 	9.95983e+07 	3883.79
4.25 	9.93521e+07 	3881.07
4.27 	9.91065e+07 	3878.36
4.29 	9.88615e+07 	3875.64
4.31 	9.86171e+07 	3872.94
4.33 	9.83732e+07 	3870.23
4.35 	9.81299e+07 	3867.52
4.37 	9.78871e+07 	3864.82
4.39 	9.7645e+07 	3862.11
4.41 	9.74034e+07 	3859.41
4.43 	9.71623e+07 	3856.71
4.45 	9.69219e+07 	3854.02
4.47 	9.66819e+07 	3851.32
4.49 	9.64426e+07 	3848.63
4.51 	9.62038e+07 	3845.93
4.53 	9.59656e+07 	3843.24
4.55 	9.57279e+07 	3840.55
4.57 	9.54908e+07 	3837.87
4.59 	9.52542e+07 	3835.18
4.61 	9.50182e+07 	3832.5
4.63 	9.47828e+07 	3829.82
4.65 	9.45479e+07 	3827.14
4.67 	9.43135e+07 	3824.46
4.69 	9.40797e+07 	3821.78
4.71 	9.38465e+07 	3819.11
4.73 	9.36138e+07 	3816.44
4.75 	9.33816e+07 	3813.77
4.77 	9.315e+07 	3811.1
4.79 	9.29189e+07 	3808.43
4.81 	9.26884e+07 	3805.76
4.83 	9.24584e+07 	3803.1
4.85 	9.2229e+07 	3800.44
4.87 	9.20001e+07 	3797.78
4.89 	9.17717e+07 	3795.12
4.91 	9.15439e+07 	3792.46
4.93 	9.13166e+07 	3789.8
4.95 	9.10898e+07 	3787.15
4.97 	9.08636e+07 	3784.5
4.99 	9.06379e+07 	3781.85
5.01 	9.04127e+07 	3779.2
5.03 	9.01881e+07 	3776.55
5.05 	8.9964e+07 	3773.91
5.07 	8.97404e+07 	3771.27
5.09 	8.95174e+07 	3768.62
5.11 	8.92948e+07 	3765.99
5.13 	8.90728e+07 	3763.35
5.15 	8.88514e+07 	3760.71
5.17 	8.86304e+07 	3758.08
5.19 	8.841e+07 	3755.44
5.21 	8.81901e+07 	3752.81
5.23 	8.79707e+07 	3750.18
5.25 	8.77518e+07 	3747.56
5.27 	8.75334e+07 	3744.93
5.29 	8.73156e+07 	3742.31
5.31 	8.70982e+07 	3739.68
5.33 	8.68814e+07 	3737.06
5.35 	8.66651e+07 	3734.44
5.37 	8.64493e+07 	3731.83
5.39 	8.6234e+07 	3729.21
5.41 	8.60193e+07 	3726.6
5.43 	8.5805e+07 	3723.99
5.45 	8.55912e+07 	3721.38
5.47 	8.5378e+07 	3718.77
5.49 	8.51652e+07 	3716.16
5.51 	8.4953e+07 	3713.55
5.53 	8.47412e+07 	3710.95
5.55 	8.453e+07 	3708.35
5.57 	8.43192e+07 	3705.75
5.59 	8.4109e+07 	3703.15
5.61 	8.38992e+07 	3700.55
5.63 	8.369e+07 	3697.96
5.65 	8.34812e+07 	3695.37
5.67 	8.32729e+07 	3692.77
5.69 	8.30652e+07 	3690.18
5.71 	8.28579e+07 	3687.6
5.73 	8.26511e+07 	3685.01
5.75 	8.24448e+07 	3682.43
5.77 	8.2239e+07 	3679.84
5.79 	8.20337e+07 	3677.26
5.81 	8.18288e+07 	3674.68
5.83 	8.16245e+07 	3672.1
5.85 	8.14206e+07 	3669.53
5.87 	8.12172e+07 	3666.95
5.89 	8.10143e+07 	3664.38
5.91 	8.08119e+07 	3661.81
5.93 	8.061e+07 	3659.24
5.95 	8.04085e+07 	3656.67
5.97 	8.02076e+07 	3654.11
5.99 	8.00071e+07 	3651.54
6.01 	7.9807e+07 	3648.98
6.03 	7.96075e+07 	3646.42
6.05 	7.94084e+07 	3643.86
6.07 	7.92098e+07 	3641.3
6.09 	7.90117e+07 	3638.75
6.11 	7.8814e+07 	3636.19
6.13 	7.86168e+07 	3633.64
6.15 	7.84201e+07 	3631.09
6.17 	7.82239e+07 	3628.54
6.19 	7.80281e+07 	3625.99
6.21 	7.78328e+07 	3623.45
6.23 	7.76379e+07 	3620.9
6.25 	7.74435e+07 	3618.36
6.27 	7.72496e+07 	3615.82
6.29 	7.70561e+07 	3613.28
6.31 	7.68631e+07 	3610.74
6.33 	7.66706e+07 	3608.21
6.35 	7.64785e+07 	3605.67
6.37 	7.62869e+07 	3603.14
6.39 	7.60957e+07 	3600.61
6.41 	7.5905e+07 	3598.08
6.43 	7.57148e+07 	3595.55
6.45 	7.5525e+07 	3593.03
6.47 	7.53356e+07 	3590.5
6.49 	7.51467e+07 	3587.98
6.51 	7.49583e+07 	3585.46
6.53 	7.47703e+07 	3582.94
6.55 	7.45827e+07 	3580.42
6.57 	7.43956e+07 	3577.91
6.59 	7.4209e+07 	3575.39
6.61 	7.40228e+07 	3572.88
6.63 	7.3837e+07 	3570.37
6.65 	7.36517e+07 	3567.86
6.67 	7.34668e+07 	3565.35
6.69 	7.32824e+07 	3562.85
6.71 	7.30984e+07 	3560.34
6.73 	7.29148e+07 	3557.84
6.75 	7.27317e+07 	3555.34
6.77 	7.2549e+07 	3552.84
6.79 	7.23668e+07 	3550.34
6.81 	7.2185e+07 	3547.85
6.83 	7.20036e+07 	3545.35
6.85 	7.18227e+07 	3542.86
6.87 	7.16422e+07 	3540.37
6.89 	7.14621e+07 	3537.88
6.91 	7.12825e+07 	3535.39
6.93 	7.11033e+07 	3532.91
6.95 	7.09245e+07 	3530.42
6.97 	7.07462e+07 	3527.94
6.99 	7.05682e+07 	3525.46
7.01 	7.03908e+07 	3522.98
7.03 	7.02137e+07 	3520.5
7.05 	7.0037e+07 	3518.03
7.07 	6.98608e+07 	3515.55
7.09 	6.9685e+07 	3513.08
7.11 	6.95097e+07 	3510.61
7.13 	6.93347e+07 	3508.14
7.15 	6.91602e+07 	3505.67
7.17 	6.89861e+07 	3503.21
7.19 	6.88124e+07 	3500.74
7.21 	6.86391e+07 	3498.28
7.23 	6.84662e+07 	3495.82
7.25 	6.82938e+07 	3493.36
7.27 	6.81217e+07 	3490.9
7.29 	6.79501e+07 	3488.44
7.31 	6.77789e+07 	3485.99
7.33 	6.76081e+07 	3483.53
7.35 	6.74377e+07 	3481.08
7.37 	6.72677e+07 	3478.63
7.39 	6.70982e+07 	3476.18
7.41 	6.6929e+07 	3473.74
7.43 	6.67603e+07 	3471.29
7.45 	6.65919e+07 	3468.85
7.47 	6.6424e+07 	3466.41
7.49 	6.62564e+07 	3463.97
7.51 	6.60893e+07 	3461.53
7.53 	6.59226e+07 	3459.09
7.55 	6.57563e+07 	3456.66
7.57 	6.55903e+07 	3454.22
7.59 	6.54248e+07 	3451.79
7.61 	6.52597e+07 	3449.36
7.63 	6.50949e+07 	3446.93
7.65 	6.49306e+07 	3444.5
7.67 	6.47667e+07 	3442.08
7.69 	6.46031e+07 	3439.65
7.71 	6.444e+07 	3437.23
7.73 	6.42772e+07 	3434.81
7.75 	6.41149e+07 	3432.39
7.77 	6.39529e+07 	3429.97
7.79 	6.37913e+07 	3427.56
7.81 	6.36301e+07 	3425.14
7.83 	6.34693e+07 	3422.73
7.85 	6.33089e+07 	3420.32
7.87 	6.31489e+07 	3417.91
7.89 	6.29893e+07 	3415.5
7.91 	6.283e+07 	3413.09
7.93 	6.26711e+07 	3410.69
7.95 	6.25127e+07 	3408.29
7.97 	6.23546e+07 	3405.88
7.99 	6.21968e+07 	3403.48
8.01 	6.20395e+07 	3401.09
8.03 	6.18825e+07 	3398.69
8.05 	6.1726e+07 	3396.29
8.07 	6.15698e+07 	3393.9
8.09 	6.14139e+07 	3391.51
8.11 	6.12585e+07 	3389.12
8.13 	6.11034e+07 	3386.73
8.15 	6.09487e+07 	3384.34
8.17 	6.07944e+07 	3381.96
8.19 	6.06405e+07 	3379.57
8.21 	6.04869e+07 	3377.19
8.23 	6.03337e+07 	3374.81
8.25 	6.01809e+07 	3372.43
8.27 	6.00284e+07 	3370.05
8.29 	5.98764e+07 	3367.68
8.31 	5.97246e+07 	3365.3
8.33 	5.95733e+07 	3362.93
8.35 	5.94223e+07 	3360.56
8.37 	5.92717e+07 	3358.19
8.39 	5.91214e+07 	3355.82
8.41 	5.89715e+07 	3353.45
8.43 	5.8822e+07 	3351.09
8.45 	5.86729e+07 	3348.72
8.47 	5.85241e+07 	3346.36
8.49 	5.83756e+07 	3344
8.51 	5.82275e+07 	3341.64
8.53 	5.80798e+07 	3339.28
8.55 	5.79325e+07 	3336.93
8.57 	5.77855e+07 	3334.57
8.59 	5.76388e+07 	3332.22
8.61 	5.74925e+07 	3329.87
8.63 	5.73466e+07 	3327.52
8.65 	5.7201e+07 	3325.17
8.67 	5.70558e+07 	3322.83
8.69 	5.69109e+07 	3320.48
8.71 	5.67664e+07 	3318.14
8.73 	5.66222e+07 	3315.8
8.75 	5.64784e+07 	3313.46
8.77 	5.63349e+07 	3311.12
8.79 	5.61918e+07 	3308.78
8.81 	5.60491e+07 	3306.45
8.83 	5.59066e+07 	3304.11
8.85 	5.57646e+07 	3301.78
8.87 	5.56228e+07 	3299.45
8.89 	5.54814e+07 	3297.12
8.91 	5.53404e+07 	3294.79
8.93 	5.51997e+07 	3292.47
8.95 	5.50594e+07 	3290.14
8.97 	5.49193e+07 	3287.82
8.99 	5.47797e+07 	3285.5
9.01 	5.46403e+07 	3283.18
9.03 	5.45013e+07 	3280.86
9.05 	5.43627e+07 	3278.54
9.07 	5.42244e+07 	3276.23
9.09 	5.40864e+07 	3273.91
9.11 	5.39488e+07 	3271.6
9.13 	5.38115e+07 	3269.29
9.15 	5.36745e+07 	3266.98
9.17 	5.35379e+07 	3264.67
9.19 	5.34016e+07 	3262.37
9.21 	5.32656e+07 	3260.06
9.23 	5.31299e+07 	3257.76
9.25 	5.29946e+07 	3255.46
9.27 	5.28597e+07 	3253.16
9.29 	5.2725e+07 	3250.86
9.31 	5.25907e+07 	3248.56
9.33 	5.24567e+07 	3246.27
9.35 	5.23231e+07 	3243.98
9.37 	5.21897e+07 	3241.68
9.39 	5.20567e+07 	3239.39
9.41 	5.1924e+07 	3237.1
9.43 	5.17917e+07 	3234.82
9.45 	5.16596e+07 	3232.53
9.47 	5.15279e+07 	3230.25
9.49 	5.13965e+07 	3227.96
9.51 	5.12655e+07 	3225.68
9.53 	5.11347e+07 	3223.4
9.55 	5.10043e+07 	3221.12
9.57 	5.08742e+07 	3218.85
9.59 	5.07444e+07 	3216.57
9.61 	5.06149e+07 	3214.3
9.63 	5.04857e+07 	3212.02
9.65 	5.03569e+07 	3209.75
9.67 	5.02284e+07 	3207.48
9.69 	5.01002e+07 	3205.22
9.71 	4.99723e+07 	3202.95
9.73 	4.98447e+07 	3200.69
9.75 	4.97174e+07 	3198.42
9.77 	4.95905e+07 	3196.16
9.79 	4.94638e+07 	3193.9
9.81 	4.93375e+07 	3191.64
9.83 	4.92115e+07 	3189.38
9.85 	4.90857e+07 	3187.13
9.87 	4.89603e+07 	3184.87
9.89 	4.88352e+07 	3182.62
9.91 	4.87104e+07 	3180.37
9.93 	4.85859e+07 	3178.12
9.95 	4.84618e+07 	3175.87
9.97 	4.83379e+07 	3173.63
9.99 	4.82143e+07 	3171.38
10.01 	4.8091e+07 	3169.14
10.03 	4.79681e+07 	3166.9
10.05 	4.78454e+07 	3164.66
10.07 	4.7723e+07 	3162.42
10.09 	4.7601e+07 	3160.18
10.11 	4.74792e+07 	3157.94
10.13 	4.73578e+07 	3155.71
10.15 	4.72366e+07 	3153.47
10.17 	4.71157e+07 	3151.24
10.19 	4.69952e+07 	3149.01
10.21 	4.68749e+07 	3146.78
10.23 	4.67549e+07 	3144.56
10.25 	4.66352e+07 	3142.33
10.27 	4.65158e+07 	3140.11
10.29 	4.63967e+07 	3137.88
10.31 	4.62779e+07 	3135.66
10.33 	4.61594e+07 	3133.44
10.35 	4.60412e+07 	3131.23
10.37 	4.59233e+07 	3129.01
10.39 	4.58056e+07 	3126.79
10.41 	4.56883e+07 	3124.58
10.43 	4.55712e+07 	3122.37
10.45 	4.54545e+07 	3120.16
10.47 	4.5338e+07 	3117.95
10.49 	4.52218e+07 	3115.74
10.51 	4.51059e+07 	3113.53
10.53 	4.49903e+07 	3111.33
10.55 	4.48749e+07 	3109.13
10.57 	4.47599e+07 	3106.92
10.59 	4.46451e+07 	3104.72
10.61 	4.45306e+07 	3102.52
10.63 	4.44164e+07 	3100.33
10.65 	4.43025e+07 	3098.13
10.67 	4.41888e+07 	3095.94
10.69 	4.40755e+07 	3093.74
10.71 	4.39624e+07 	3091.55
10.73 	4.38496e+07 	3089.36
10.75 	4.37371e+07 	3087.17
10.77 	4.36248e+07 	3084.99
10.79 	4.35128e+07 	3082.8
10.81 	4.34012e+07 	3080.62
10.83 	4.32897e+07 	3078.43
10.85 	4.31786e+07 	3076.25
10.87 	4.30677e+07 	3074.07
10.89 	4.29571e+07 	3071.89
10.91 	4.28468e+07 	3069.72
10.93 	4.27368e+07 	3067.54
10.95 	4.2627e+07 	3065.37
10.97 	4.25175e+07 	3063.2
10.99 	4.24083e+07 	3061.02
11.01 	4.22993e+07 	3058.85
11.03 	4.21906e+07 	3056.69
11.05 	4.20822e+07 	3054.52
11.07 	4.1974e+07 	3052.35
11.09 	4.18661e+07 	3050.19
11.11 	4.17585e+07 	3048.03
11.13 	4.16511e+07 	3045.87
11.15 	4.15441e+07 	3043.71
11.17 	4.14372e+07 	3041.55
11.19 	4.13307e+07 	3039.39
11.21 	4.12244e+07 	3037.24
11.23 	4.11183e+07 	3035.09
11.25 	4.10126e+07 	3032.93
11.27 	4.09071e+07 	3030.78
11.29 	4.08018e+07 	3028.63
11.31 	4.06968e+07 	3026.49
11.33 	4.05921e+07 	3024.34
11.35 	4.04876e+07 	3022.19
11.37 	4.03834e+07 	3020.05
11.39 	4.02795e+07 	3017.91
11.41 	4.01758e+07 	3015.77
11.43 	4.00723e+07 	3013.63
11.45 	3.99692e+07 	3011.49
11.47 	3.98662e+07 	3009.35
11.49 	3.97636e+07 	3007.22
11.51 	3.96612e+07 	3005.09
11.53 	3.9559e+07 	3002.95
11.55 	3.94571e+07 	3000.82
11.57 	3.93554e+07 	2998.69
11.59 	3.9254e+07 	2996.57
11.61 	3.91529e+07 	2994.44
11.63 	3.9052e+07 	2992.32
11.65 	3.89513e+07 	2990.19
11.67 	3.8851e+07 	2988.07
11.69 	3.87508e+07 	2985.95
11.71 	3.86509e+07 	2983.83
11.73 	3.85513e+07 	2981.71
11.75 	3.84519e+07 	2979.6
11.77 	3.83527e+07 	2977.48
11.79 	3.82538e+07 	2975.37
11.81 	3.81551e+07 	2973.26
11.83 	3.80567e+07 	2971.15
11.85 	3.79585e+07 	2969.04
11.87 	3.78606e+07 	2966.93
11.89 	3.77629e+07 	2964.82
11.91 	3.76655e+07 	2962.72
11.93 	3.75683e+07 	2960.62
11.95 	3.74713e+07 	2958.51
11.97 	3.73746e+07 	2956.41
11.99 	3.72781e+07 	2954.31
12.01 	3.71819e+07 	2952.22
12.03 	3.70859e+07 	2950.12
12.05 	3.69901e+07 	2948.02
12.07 	3.68946e+07 	2945.93
12.09 	3.67993e+07 	2943.84
12.11 	3.67043e+07 	2941.75
12.13 	3.66095e+07 	2939.66
12.15 	3.65149e+07 	2937.57
12.17 	3.64206e+07 	2935.48
12.19 	3.63265e+07 	2933.4
12.21 	3.62326e+07 	2931.32
12.23 	3.6139e+07 	2929.23
12.25 	3.60456e+07 	2927.15
12.27 	3.59524e+07 	2925.07
12.29 	3.58595e+07 	2923
12.31 	3.57668e+07 	2920.92
12.33 	3.56743e+07 	2918.84
12.35 	3.55821e+07 	2916.77
12.37 	3.54901e+07 	2914.7
12.39 	3.53983e+07 	2912.63
12.41 	3.53067e+07 	2910.56
12.43 	3.52154e+07 	2908.49
12.45 	3.51243e+07 	2906.42
12.47 	3.50335e+07 	2904.36
12.49 	3.49428e+07 	2902.29
12.51 	3.48524e+07 	2900.23
12.53 	3.47622e+07 	2898.17
12.55 	3.46722e+07 	2896.11
12.57 	3.45825e+07 	2894.05
12.59 	3.4493e+07 	2891.99
12.61 	3.44037e+07 	2889.94
12.63 	3.43146e+07 	2887.88
12.65 	3.42258e+07 	2885.83
12.67 	3.41372e+07 	2883.78
12.69 	3.40488e+07 	2881.73
12.71 	3.39606e+07 	2879.68
12.73 	3.38726e+07 	2877.63
12.75 	3.37849e+07 	2875.59
12.77 	3.36974e+07 	2873.54
12.79 	3.36101e+07 	2871.5
12.81 	3.3523e+07 	2869.46
12.83 	3.34361e+07 	2867.42
12.85 	3.33495e+07 	2865.38
12.87 	3.32631e+07 	2863.34
12.89 	3.31768e+07 	2861.3
12.91 	3.30908e+07 	2859.27
12.93 	3.30051e+07 	2857.23
12.95 	3.29195e+07 	2855.2
12.97 	3.28341e+07 	2853.17
12.99 	3.2749e+07 	2851.14
13.01 	3.26641e+07 	2849.11
13.03 	3.25794e+07 	2847.09
13.05 	3.24949e+07 	2845.06
13.07 	3.24106e+07 	2843.04
13.09 	3.23265e+07 	2841.01
13.11 	3.22426e+07 	2838.99
13.13 	3.2159e+07 	2836.97
13.15 	3.20755e+07 	2834.96
13.17 	3.19923e+07 	2832.94
13.19 	3.19092e+07 	2830.92
13.21 	3.18264e+07 	2828.91
13.23 	3.17438e+07 	2826.89
13.25 	3.16614e+07 	2824.88
13.27 	3.15792e+07 	2822.87
13.29 	3.14972e+07 	2820.86
13.31 	3.14154e+07 	2818.86
13.33 	3.13338e+07 	2816.85
13.35 	3.12525e+07 	2814.85
13.37 	3.11713e+07 	2812.84
13.39 	3.10903e+07 	2810.84
13.41 	3.10095e+07 	2808.84
13.43 	3.0929e+07 	2806.84
13.45 	3.08486e+07 	2804.84
13.47 	3.07685e+07 	2802.84
13.49 	3.06885e+07 	2800.85
13.51 	3.06087e+07 	2798.86
13.53 	3.05292e+07 	2796.86
13.55 	3.04498e+07 	2794.87
13.57 	3.03707e+07 	2792.88
13.59 	3.02917e+07 	2790.89
13.61 	3.02129e+07 	2788.91
13.63 	3.01344e+07 	2786.92
13.65 	3.0056e+07 	2784.93
13.67 	2.99779e+07 	2782.95
13.69 	2.98999e+07 	2780.97
13.71 	2.98221e+07 	2778.99
13.73 	2.97445e+07 	2777.01
13.75 	2.96671e+07 	2775.03
13.77 	2.959e+07 	2773.06
13.79 	2.9513e+07 	2771.08
13.81 	2.94362e+07 	2769.11
13.83 	2.93596e+07 	2767.13
13.85 	2.92831e+07 	2765.16
13.87 	2.92069e+07 	2763.19
13.89 	2.91309e+07 	2761.22
13.91 	2.9055e+07 	2759.26
13.93 	2.89794e+07 	2757.29
13.95 	2.89039e+07 	2755.33
13.97 	2.88287e+07 	2753.36
13.99 	2.87536e+07 	2751.4
14.01 	2.86787e+07 	2749.44
14.03 	2.8604e+07 	2747.48
14.05 	2.85295e+07 	2745.52
14.07 	2.84552e+07 	2743.57
14.09 	2.8381e+07 	2741.61
14.11 	2.83071e+07 	2739.66
14.13 	2.82333e+07 	2737.71
14.15 	2.81597e+07 	2735.75
14.17 	2.80863e+07 	2733.8
14.19 	2.80131e+07 	2731.86
14.21 	2.79401e+07 	2729.91
14.23 	2.78673e+07 	2727.96
14.25 	2.77946e+07 	2726.02
14.27 	2.77222e+07 	2724.08
14.29 	2.76499e+07 	2722.13
14.31 	2.75778e+07 	2720.19
14.33 	2.75058e+07 	2718.25
14.35 	2.74341e+07 	2716.32
14.37 	2.73625e+07 	2714.38
14.39 	2.72912e+07 	2712.44
14.41 	2.722e+07 	2710.51
14.43 	2.71489e+07 	2708.58
14.45 	2.70781e+07 	2706.64
14.47 	2.70074e+07 	2704.71
14.49 	2.6937e+07 	2702.79
14.51 	2.68667e+07 	2700.86
14.53 	2.67965e+07 	2698.93
14.55 	2.67266e+07 	2697.01
14.57 	2.66568e+07 	2695.08
14.59 	2.65872e+07 	2693.16
14.61 	2.65178e+07 	2691.24
14.63 	2.64485e+07 	2689.32
14.65 	2.63795e+07 	2687.4
14.67 	2.63106e+07 	2685.49
14.69 	2.62419e+07 	2683.57
14.71 	2.61733e+07 	2681.66
14.73 	2.61049e+07 	2679.74
14.75 	2.60367e+07 	2677.83
14.77 	2.59687e+07 	2675.92
14.79 	2.59008e+07 	2674.01
14.81 	2.58332e+07 	2672.1
14.83 	2.57657e+07 	2670.2
14.85 	2.56983e+07 	2668.29
14.87 	2.56311e+07 	2666.39
14.89 	2.55641e+07 	2664.48
14.91 	2.54973e+07 	2662.58
14.93 	2.54306e+07 	2660.68
14.95 	2.53642e+07 	2658.78
14.97 	2.52978e+07 	2656.89
14.99 	2.52317e+07 	2654.99
15.01 	2.51657e+07 	2653.09
15.03 	2.50999e+07 	2651.2
15.05 	2.50342e+07 	2649.31
15.07 	2.49687e+07 	2647.42
15.09 	2.49034e+07 	2645.53
15.11 	2.48382e+07 	2643.64
15.13 	2.47732e+07 	2641.75
15.15 	2.47084e+07 	2639.87
15.17 	2.46438e+07 	2637.98
15.19 	2.45793e+07 	2636.1
15.21 	2.45149e+07 	2634.22
15.23 	2.44508e+07 	2632.33
15.25 	2.43867e+07 	2630.46
15.27 	2.43229e+07 	2628.58
15.29 	2.42592e+07 	2626.7
15.31 	2.41957e+07 	2624.82
15.33 	2.41323e+07 	2622.95
15.35 	2.40691e+07 	2621.08
15.37 	2.40061e+07 	2619.2
15.39 	2.39432e+07 	2617.33
15.41 	2.38805e+07 	2615.46
15.43 	2.38179e+07 	2613.6
15.45 	2.37555e+07 	2611.73
15.47 	2.36933e+07 	2609.86
15.49 	2.36312e+07 	2608
15.51 	2.35693e+07 	2606.14
15.53 	2.35075e+07 	2604.28
15.55 	2.34459e+07 	2602.42
15.57 	2.33844e+07 	2600.56
15.59 	2.33231e+07 	2598.7
15.61 	2.3262e+07 	2596.84
15.63 	2.3201e+07 	2594.99
15.65 	2.31402e+07 	2593.13
15.67 	2.30795e+07 	2591.28
15.69 	2.3019e+07 	2589.43
15.71 	2.29586e+07 	2587.58
15.73 	2.28984e+07 	2585.73
15.75 	2.28383e+07 	2583.88
15.77 	2.27784e+07 	2582.03
15.79 	2.27186e+07 	2580.19
15.81 	2.2659e+07 	2578.34
15.83 	2.25996e+07 	2576.5
15.85 	2.25403e+07 	2574.66
15.87 	2.24811e+07 	2572.82
15.89 	2.24221e+07 	2570.98
15.91 	2.23633e+07 	2569.14
15.93 	2.23046e+07 	2567.31
15.95 	2.2246e+07 	2565.47
15.97 	2.21876e+07 	2563.64
15.99 	2.21293e+07 	2561.8
16.01 	2.20712e+07 	2559.97
16.03 	2.20133e+07 	2558.14
16.05 	2.19555e+07 	2556.31
16.07 	2.18978e+07 	2554.49
16.09 	2.18403e+07 	2552.66
16.11 	2.17829e+07 	2550.83
16.13 	2.17257e+07 	2549.01
16.15 	2.16686e+07 	2547.19
16.17 	2.16117e+07 	2545.37
16.19 	2.15549e+07 	2543.55
16.21 	2.14983e+07 	2541.73
16.23 	2.14418e+07 	2539.91
16.25 	2.13854e+07 	2538.09
16.27 	2.13292e+07 	2536.28
16.29 	2.12731e+07 	2534.46
16.31 	2.12172e+07 	2532.65
16.33 	2.11614e+07 	2530.84
16.35 	2.11058e+07 	2529.03
16.37 	2.10503e+07 	2527.22
16.39 	2.09949e+07 	2525.41
16.41 	2.09397e+07 	2523.61
16.43 	2.08847e+07 	2521.8
16.45 	2.08297e+07 	2520
16.47 	2.07749e+07 	2518.19
16.49 	2.07203e+07 	2516.39
16.51 	2.06658e+07 	2514.59
16.53 	2.06114e+07 	2512.79
16.55 	2.05572e+07 	2510.99
16.57 	2.05031e+07 	2509.2
16.59 	2.04491e+07 	2507.4
16.61 	2.03953e+07 	2505.61
16.63 	2.03416e+07 	2503.81
16.65 	2.02881e+07 	2502.02
16.67 	2.02347e+07 	2500.23
16.69 	2.01814e+07 	2498.44
16.71 	2.01283e+07 	2496.65
16.73 	2.00753e+07 	2494.87
16.75 	2.00224e+07 	2493.08
16.77 	1.99697e+07 	2491.3
16.79 	1.99171e+07 	2489.51
16.81 	1.98646e+07 	2487.73
16.83 	1.98123e+07 	2485.95
16.85 	1.97601e+07 	2484.17
16.87 	1.97081e+07 	2482.39
16.89 	1.96561e+07 	2480.62
16.91 	1.96043e+07 	2478.84
16.93 	1.95527e+07 	2477.06
16.95 	1.95012e+07 	2475.29
16.97 	1.94498e+07 	2473.52
16.99 	1.93985e+07 	2471.75
17.01 	1.93474e+07 	2469.98
17.03 	1.92964e+07 	2468.21
17.05 	1.92455e+07 	2466.44
17.07 	1.91948e+07 	2464.68
17.09 	1.91442e+07 	2462.91
17.11 	1.90937e+07 	2461.15
17.13 	1.90433e+07 	2459.38
17.15 	1.89931e+07 	2457.62
17.17 	1.8943e+07 	2455.86
17.19 	1.88931e+07 	2454.1
17.21 	1.88432e+07 	2452.35
17.23 	1.87935e+07 	2450.59
17.25 	1.87439e+07 	2448.83
17.27 	1.86945e+07 	2447.08
17.29 	1.86451e+07 	2445.33
17.31 	1.85959e+07 	2443.57
17.33 	1.85469e+07 	2441.82
17.35 	1.84979e+07 	2440.07
17.37 	1.84491e+07 	2438.33
17.39 	1.84004e+07 	2436.58
17.41 	1.83518e+07 	2434.83
17.43 	1.83034e+07 	2433.09
17.45 	1.82551e+07 	2431.34
17.47 	1.82069e+07 	2429.6
17.49 	1.81588e+07 	2427.86
17.51 	1.81108e+07 	2426.12
17.53 	1.8063e+07 	2424.38
17.55 	1.80153e+07 	2422.65
17.57 	1.79677e+07 	2420.91
17.59 	1.79203e+07 	2419.17
17.61 	1.78729e+07 	2417.44
17.63 	1.78257e+07 	2415.71
17.65 	1.77786e+07 	2413.98
17.67 	1.77316e+07 	2412.25
17.69 	1.76848e+07 	2410.52
17.71 	1.7638e+07 	2408.79
17.73 	1.75914e+07 	2407.06
17.75 	1.75449e+07 	2405.34
17.77 	1.74986e+07 	2403.61
17.79 	1.74523e+07 	2401.89
17.81 	1.74062e+07 	2400.17
17.83 	1.73602e+07 	2398.45
17.85 	1.73143e+07 	2396.73
17.87 	1.72685e+07 	2395.01
17.89 	1.72228e+07 	2393.29
17.91 	1.71773e+07 	2391.57
17.93 	1.71318e+07 	2389.86
17.95 	1.70865e+07 	2388.15
17.97 	1.70413e+07 	2386.43
17.99 	1.69962e+07 	2384.72
18.01 	1.69513e+07 	2383.01
18.03 	1.69064e+07 	2381.3
18.05 	1.68617e+07 	2379.59
18.07 	1.68171e+07 	2377.89
18.09 	1.67726e+07 	2376.18
18.11 	1.67282e+07 	2374.48
18.13 	1.66839e+07 	2372.77
18.15 	1.66398e+07 	2371.07
18.17 	1.65957e+07 	2369.37
18.19 	1.65518e+07 	2367.67
18.21 	1.6508e+07 	2365.97
18.23 	1.64643e+07 	2364.28
18.25 	1.64207e+07 	2362.58
18.27 	1.63772e+07 	2360.88
18.29 	1.63338e+07 	2359.19
18.31 	1.62906e+07 	2357.5
18.33 	1.62474e+07 	2355.81
18.35 	1.62044e+07 	2354.12
18.37 	1.61614e+07 	2352.43
18.39 	1.61186e+07 	2350.74
18.41 	1.60759e+07 	2349.05
18.43 	1.60333e+07 	2347.37
18.45 	1.59909e+07 	2345.68
18.47 	1.59485e+07 	2344
18.49 	1.59062e+07 	2342.32
18.51 	1.58641e+07 	2340.63
18.53 	1.5822e+07 	2338.95
18.55 	1.57801e+07 	2337.28
18.57 	1.57382e+07 	2335.6
18.59 	1.56965e+07 	2333.92
18.61 	1.56549e+07 	2332.25
18.63 	1.56134e+07 	2330.57
18.65 	1.5572e+07 	2328.9
18.67 	1.55307e+07 	2327.23
18.69 	1.54895e+07 	2325.56
18.71 	1.54484e+07 	2323.89
18.73 	1.54075e+07 	2322.22
18.75 	1.53666e+07 	2320.55
18.77 	1.53258e+07 	2318.89
18.79 	1.52852e+07 	2317.22
18.81 	1.52446e+07 	2315.56
18.83 	1.52042e+07 	2313.89
18.85 	1.51638e+07 	2312.23
18.87 	1.51236e+07 	2310.57
18.89 	1.50835e+07 	2308.91
18.91 	1.50434e+07 	2307.25
18.93 	1.50035e+07 	2305.6
18.95 	1.49637e+07 	2303.94
18.97 	1.4924e+07 	2302.29
18.99 	1.48844e+07 	2300.63
19.01 	1.48448e+07 	2298.98
19.03 	1.48054e+07 	2297.33
19.05 	1.47661e+07 	2295.68
19.07 	1.47269e+07 	2294.03
19.09 	1.46878e+07 	2292.38
19.11 	1.46488e+07 	2290.74
19.13 	1.46099e+07 	2289.09
19.15 	1.45711e+07 	2287.45
19.17 	1.45324e+07 	2285.8
19.19 	1.44938e+07 	2284.16
19.21 	1.44553e+07 	2282.52
19.23 	1.44169e+07 	2280.88
19.25 	1.43785e+07 	2279.24
19.27 	1.43403e+07 	2277.6
19.29 	1.43022e+07 	2275.97
19.31 	1.42642e+07 	2274.33
19.33 	1.42263e+07 	2272.7
19.35 	1.41885e+07 	2271.06
19.37 	1.41508e+07 	2269.43
19.39 	1.41132e+07 	2267.8
19.41 	1.40756e+07 	2266.17
19.43 	1.40382e+07 	2264.54
19.45 	1.40009e+07 	2262.91
19.47 	1.39637e+07 	2261.29
19.49 	1.39265e+07 	2259.66
19.51 	1.38895e+07 	2258.04
19.53 	1.38526e+07 	2256.41
19.55 	1.38157e+07 	2254.79
19.57 	1.3779e+07 	2253.17
19.59 	1.37423e+07 	2251.55
19.61 	1.37057e+07 	2249.93
19.63 	1.36693e+07 	2248.32
19.65 	1.36329e+07 	2246.7
19.67 	1.35966e+07 	2245.08
19.69 	1.35605e+07 	2243.47
19.71 	1.35244e+07 	2241.86
19.73 	1.34884e+07 	2240.24
19.75 	1.34525e+07 	2238.63
19.77 	1.34167e+07 	2237.02
19.79 	1.3381e+07 	2235.42
19.81 	1.33453e+07 	2233.81
19.83 	1.33098e+07 	2232.2
19.85 	1.32744e+07 	2230.6
19.87 	1.3239e+07 	2228.99
19.89 	1.32038e+07 	2227.39
19.91 	1.31686e+07 	2225.79
19.93 	1.31335e+07 	2224.19
19.95 	1.30986e+07 	2222.59
19.97 	1.30637e+07 	2220.99
19.99 	1.30289e+07 	2219.39
20.01 	1.29942e+07 	2217.79
20.03 	1.29595e+07 	2216.2
20.05 	1.2925e+07 	2214.6
20.07 	1.28906e+07 	2213.01
20.09 	1.28562e+07 	2211.42
20.11 	1.2822e+07 	2209.83
20.13 	1.27878e+07 	2208.24
20.15 	1.27537e+07 	2206.65
20.17 	1.27197e+07 	2205.06
20.19 	1.26858e+07 	2203.47
20.21 	1.2652e+07 	2201.89
20.23 	1.26183e+07 	2200.3
20.25 	1.25846e+07 	2198.72
20.27 	1.25511e+07 	2197.14
20.29 	1.25176e+07 	2195.56
20.31 	1.24842e+07 	2193.98
20.33 	1.24509e+07 	2192.4
20.35 	1.24177e+07 	2190.82
20.37 	1.23846e+07 	2189.24
20.39 	1.23516e+07 	2187.67
20.41 	1.23186e+07 	2186.09
20.43 	1.22858e+07 	2184.52
20.45 	1.2253e+07 	2182.95
20.47 	1.22203e+07 	2181.38
20.49 	1.21877e+07 	2179.81
20.51 	1.21552e+07 	2178.24
20.53 	1.21227e+07 	2176.67
20.55 	1.20904e+07 	2175.1
20.57 	1.20581e+07 	2173.54
20.59 	1.20259e+07 	2171.97
20.61 	1.19938e+07 	2170.41
20.63 	1.19618e+07 	2168.85
20.65 	1.19299e+07 	2167.28
20.67 	1.1898e+07 	2165.72
20.69 	1.18663e+07 	2164.16
20.71 	1.18346e+07 	2162.61
20.73 	1.1803e+07 	2161.05
20.75 	1.17715e+07 	2159.49
20.77 	1.174e+07 	2157.94
20.79 	1.17087e+07 	2156.38
20.81 	1.16774e+07 	2154.83
20.83 	1.16462e+07 	2153.28
20.85 	1.16151e+07 	2151.73
20.87 	1.15841e+07 	2150.18
20.89 	1.15531e+07 	2148.63
20.91 	1.15223e+07 	2147.08
20.93 	1.14915e+07 	2145.54
20.95 	1.14608e+07 	2143.99
20.97 	1.14301e+07 	2142.45
20.99 	1.13996e+07 	2140.9
21.01 	1.13691e+07 	2139.36
21.03 	1.13387e+07 	2137.82
21.05 	1.13084e+07 	2136.28
21.07 	1.12782e+07 	2134.74
21.09 	1.1248e+07 	2133.2
21.11 	1.1218e+07 	2131.67
21.13 	1.1188e+07 	2130.13
21.15 	1.11581e+07 	2128.59
21.17 	1.11282e+07 	2127.06
21.19 	1.10985e+07 	2125.53
21.21 	1.10688e+07 	2124
21.23 	1.10392e+07 	2122.47
21.25 	1.10097e+07 	2120.94
21.27 	1.09802e+07 	2119.41
21.29 	1.09508e+07 	2117.88
21.31 	1.09215e+07 	2116.35
21.33 	1.08923e+07 	2114.83
21.35 	1.08632e+07 	2113.31
21.37 	1.08341e+07 	2111.78
21.39 	1.08051e+07 	2110.26
21.41 	1.07762e+07 	2108.74
21.43 	1.07474e+07 	2107.22
21.45 	1.07186e+07 	2105.7
21.47 	1.06899e+07 	2104.18
21.49 	1.06613e+07 	2102.67
21.51 	1.06328e+07 	2101.15
21.53 	1.06043e+07 	2099.64
21.55 	1.05759e+07 	2098.12
21.57 	1.05476e+07 	2096.61
21.59 	1.05193e+07 	2095.1
21.61 	1.04912e+07 	2093.59
21.63 	1.04631e+07 	2092.08
21.65 	1.04351e+07 	2090.57
21.67 	1.04071e+07 	2089.06
21.69 	1.03792e+07 	2087.56
21.71 	1.03514e+07 	2086.05
21.73 	1.03237e+07 	2084.55
21.75 	1.0296e+07 	2083.04
21.77 	1.02685e+07 	2081.54
21.79 	1.0241e+07 	2080.04
21.81 	1.02135e+07 	2078.54
21.83 	1.01861e+07 	2077.04
21.85 	1.01588e+07 	2075.54
21.87 	1.01316e+07 	2074.04
21.89 	1.01045e+07 	2072.55
21.91 	1.00774e+07 	2071.05
21.93 	1.00504e+07 	2069.56