/*--------------------------------*- C++ -*----------------------------------*\
| =========                 |                                                 |
| \\      /  F ield         | OpenFOAM: The Open Source CFD Toolbox           |
|  \\    /   O peration     | Version:  2212                                  |
|   \\  /    A nd           | Website:  www.openfoam.com                      |
|    \\/     M anipulation  |                                                 |
\*---------------------------------------------------------------------------*/
FoamFile
{
    version     2.0;
    format      ascii;
    arch        "LSB;label=32;scalar=64";
    class       volScalarField;
    location    "0.001";
    object      G;
}
// * * * * * * * * * * * * * * * * * * * * * * * * * * * * * * * * * * * * * //

dimensions      [1 0 -3 0 0 0 0];

internalField   nonuniform List<scalar> 
100
(
1836.22
1836.14
1836.05
1835.95
1835.85
1835.73
1835.6
1835.46
1835.31
1835.15
1834.96
1834.76
1834.55
1834.31
1834.05
1833.77
1833.46
1833.12
1832.76
1832.36
1831.92
1831.44
1830.92
1830.35
1829.74
1829.06
1828.32
1827.52
1826.65
1825.69
1824.65
1823.52
1822.28
1820.93
1819.46
1817.85
1816.1
1814.19
1812.11
1809.84
1807.38
1804.71
1801.85
1798.89
1796.01
1793.61
1792.34
1793.17
1797.29
1805.97
1820.38
1841.2
1868.01
1897.92
1925.16
1943.09
1949.02
1946.1
1939.23
1931.41
1923.77
1916.63
1910.06
1904.02
1898.48
1893.4
1888.74
1884.47
1880.56
1876.96
1873.67
1870.65
1867.88
1865.34
1863.01
1860.87
1858.92
1857.12
1855.47
1853.97
1852.58
1851.31
1850.15
1849.09
1848.11
1847.21
1846.4
1845.64
1844.96
1844.33
1843.75
1843.22
1842.74
1842.3
1841.9
1841.53
1841.2
1840.89
1840.62
1840.37
)
;

boundaryField
{
    sides
    {
        type            myMarshakRadiation;
        refValue        nonuniform List<scalar> 2(1837.21 1837.21);
        refGradient     uniform 0;
        valueFraction   nonuniform List<scalar> 2(0.0361446 0.0361446);
        source          uniform 0;
        value           nonuniform List<scalar> 2(1840.25 1836.25);
    }
    empty
    {
        type            empty;
    }
}


// ************************************************************************* //
