/*--------------------------------*- C++ -*----------------------------------*\
| =========                 |                                                 |
| \\      /  F ield         | OpenFOAM: The Open Source CFD Toolbox           |
|  \\    /   O peration     | Version:  2212                                  |
|   \\  /    A nd           | Website:  www.openfoam.com                      |
|    \\/     M anipulation  |                                                 |
\*---------------------------------------------------------------------------*/
FoamFile
{
    version     2.0;
    format      ascii;
    arch        "LSB;label=32;scalar=64";
    class       volScalarField;
    location    "0.001";
    object      p;
}
// * * * * * * * * * * * * * * * * * * * * * * * * * * * * * * * * * * * * * //

dimensions      [1 -1 -2 0 0 0 0];

internalField   nonuniform List<scalar> 
100
(
99185.7
99185.7
99185.7
99185.7
99185.7
99185.7
99185.7
99185.7
99185.7
99185.7
99185.7
99185.7
99185.7
99185.7
99185.7
99185.7
99185.7
99185.7
99185.7
99185.7
99185.7
99185.7
99185.7
99185.7
99185.7
99185.7
99185.7
99185.7
99185.7
99185.7
99185.7
99185.7
99185.7
99185.7
99185.7
99185.6
99185
99182.9
99174.9
99147.6
99062.2
98820.3
98206
96821
94073.2
89301.5
82057
72416.7
61133.2
49591.7
39339.5
32144.4
28426.1
26094.9
23269.7
19514.5
15553.4
12526.4
10884.5
10222.4
10004.4
9940.98
9924.01
9919.78
9918.79
9918.58
9918.53
9918.52
9918.52
9918.52
9918.52
9918.52
9918.52
9918.52
9918.52
9918.52
9918.52
9918.52
9918.52
9918.52
9918.52
9918.52
9918.52
9918.52
9918.52
9918.52
9918.52
9918.52
9918.52
9918.52
9918.52
9918.52
9918.52
9918.52
9918.52
9918.52
9918.52
9918.52
9918.52
9918.52
)
;

boundaryField
{
    sides
    {
        type            zeroGradient;
    }
    empty
    {
        type            empty;
    }
}


// ************************************************************************* //
