/*--------------------------------*- C++ -*----------------------------------*\
| =========                 |                                                 |
| \\      /  F ield         | OpenFOAM: The Open Source CFD Toolbox           |
|  \\    /   O peration     | Version:  2212                                  |
|   \\  /    A nd           | Website:  www.openfoam.com                      |
|    \\/     M anipulation  |                                                 |
\*---------------------------------------------------------------------------*/
FoamFile
{
    version     2.0;
    format      ascii;
    arch        "LSB;label=32;scalar=64";
    class       volVectorField;
    location    "0.001";
    object      U;
}
// * * * * * * * * * * * * * * * * * * * * * * * * * * * * * * * * * * * * * //

dimensions      [0 1 -1 0 0 0 0];

internalField   nonuniform List<vector> 
100
(
(7.14901e-09 0 0)
(1.14547e-08 0 0)
(1.4268e-08 0 0)
(1.6404e-08 0 0)
(1.8307e-08 0 0)
(2.02249e-08 0 0)
(2.2185e-08 0 0)
(2.42787e-08 0 0)
(2.65614e-08 0 0)
(2.90615e-08 0 0)
(3.17575e-08 0 0)
(3.46462e-08 0 0)
(3.78636e-08 0 0)
(4.13688e-08 0 0)
(4.51374e-08 0 0)
(4.92295e-08 0 0)
(5.36935e-08 0 0)
(5.86261e-08 0 0)
(6.39998e-08 0 0)
(6.98031e-08 0 0)
(7.61134e-08 0 0)
(8.29984e-08 0 0)
(9.0571e-08 0 0)
(9.88226e-08 0 0)
(1.07765e-07 0 0)
(1.17499e-07 0 0)
(1.28148e-07 0 0)
(1.40102e-07 0 0)
(1.54925e-07 0 0)
(1.82309e-07 0 0)
(2.79983e-07 0 0)
(7.74165e-07 0 0)
(3.4138e-06 0 0)
(1.70516e-05 0 0)
(8.3816e-05 0 0)
(0.000391338 0 0)
(0.00171759 0 0)
(0.00704655 0 0)
(0.0268843 0 0)
(0.0948621 0 0)
(0.307701 0 0)
(0.911647 0 0)
(2.4521 0 0)
(5.96004 0 0)
(13.0678 0 0)
(25.9043 0 0)
(46.7142 0 0)
(77.3056 0 0)
(118.366 0 0)
(168.494 0 0)
(219.415 0 0)
(255.347 0 0)
(266.613 0 0)
(255.952 0 0)
(225.545 0 0)
(175.639 0 0)
(113.829 0 0)
(57.9291 0 0)
(22.9113 0 0)
(7.44366 0 0)
(2.12896 0 0)
(0.55851 0 0)
(0.136717 0 0)
(0.0314448 0 0)
(0.00682247 0 0)
(0.00140304 0 0)
(0.000277001 0 0)
(5.53319e-05 0 0)
(1.36627e-05 0 0)
(5.95227e-06 0 0)
(4.34709e-06 0 0)
(3.80706e-06 0 0)
(3.4634e-06 0 0)
(3.17173e-06 0 0)
(2.90768e-06 0 0)
(2.666e-06 0 0)
(2.44441e-06 0 0)
(2.24119e-06 0 0)
(2.05478e-06 0 0)
(1.88375e-06 0 0)
(1.72683e-06 0 0)
(1.58288e-06 0 0)
(1.45084e-06 0 0)
(1.32967e-06 0 0)
(1.21843e-06 0 0)
(1.11632e-06 0 0)
(1.0226e-06 0 0)
(9.36585e-07 0 0)
(8.57587e-07 0 0)
(7.84975e-07 0 0)
(7.18286e-07 0 0)
(6.56973e-07 0 0)
(6.00526e-07 0 0)
(5.48468e-07 0 0)
(5.00134e-07 0 0)
(4.54319e-07 0 0)
(4.08298e-07 0 0)
(3.56258e-07 0 0)
(2.86006e-07 0 0)
(1.73992e-07 0 0)
)
;

boundaryField
{
    sides
    {
        type            zeroGradient;
    }
    empty
    {
        type            empty;
    }
}


// ************************************************************************* //
