/*--------------------------------*- C++ -*----------------------------------*\
| =========                 |                                                 |
| \\      /  F ield         | OpenFOAM: The Open Source CFD Toolbox           |
|  \\    /   O peration     | Version:  2312                                  |
|   \\  /    A nd           | Website:  www.openfoam.com                      |
|    \\/     M anipulation  |                                                 |
\*---------------------------------------------------------------------------*/
FoamFile
{
    version     2.0;
    format      ascii;
    arch        "LSB;label=32;scalar=64";
    class       volScalarField;
    location    "8e-05";
    object      rho;
}
// * * * * * * * * * * * * * * * * * * * * * * * * * * * * * * * * * * * * * //

dimensions      [1 -3 0 0 0 0 0];

internalField   nonuniform List<scalar> 
500
(
0.00579896
0.00580228
0.00580694
0.00581321
0.00582124
0.00583109
0.0058428
0.0058564
0.00587191
0.00588934
0.00590873
0.00593009
0.00595344
0.00597881
0.00600623
0.00603571
0.0060673
0.00610101
0.00613689
0.00617496
0.00621526
0.00625784
0.00630273
0.00634997
0.00639962
0.00645172
0.00650632
0.00656348
0.00662325
0.00668569
0.00675086
0.00681883
0.00688967
0.00696345
0.00704024
0.00712013
0.00720319
0.00728951
0.00737919
0.00747231
0.00756897
0.00766928
0.00777334
0.00788127
0.00799318
0.0081092
0.00822944
0.00835406
0.00848317
0.00861694
0.0087555
0.00889902
0.00904767
0.0092016
0.00936101
0.00952608
0.00969701
0.00987399
0.0100572
0.010247
0.0104435
0.0106469
0.0108575
0.0110757
0.0113015
0.0115354
0.0117777
0.0120286
0.0122885
0.0125576
0.0128365
0.0131254
0.0134247
0.0137348
0.0140562
0.0143893
0.0147345
0.0150923
0.0154633
0.0158479
0.0162468
0.0166604
0.0170893
0.0175343
0.0179959
0.0184748
0.0189717
0.0194874
0.0200227
0.0205783
0.0211552
0.0217541
0.0223761
0.0230221
0.0236931
0.0243901
0.0251143
0.0258669
0.026649
0.0274619
0.0283069
0.0291854
0.0300989
0.0310488
0.0320368
0.0330645
0.0341335
0.0352458
0.0364031
0.0376075
0.038861
0.0401657
0.0415239
0.042938
0.0444104
0.0459436
0.0475403
0.0492033
0.0509355
0.05274
0.0546199
0.0565786
0.0586194
0.0607461
0.0629624
0.0652722
0.0676797
0.070189
0.0728048
0.0755316
0.0783743
0.081338
0.084428
0.0876497
0.091009
0.0945119
0.0981645
0.101973
0.105945
0.110088
0.114407
0.118912
0.123611
0.12851
0.133621
0.13895
0.144508
0.150306
0.156352
0.162657
0.169234
0.176094
0.183248
0.190709
0.198491
0.206608
0.215074
0.223903
0.233113
0.242719
0.252739
0.26319
0.274092
0.285465
0.297328
0.309705
0.322617
0.336089
0.350146
0.364814
0.380121
0.396096
0.412771
0.430177
0.448349
0.467324
0.487138
0.507833
0.529451
0.552037
0.575639
0.600308
0.626097
0.653063
0.681267
0.710772
0.741648
0.773966
0.807805
0.843246
0.880377
0.919292
0.96009
1.00288
1.04777
1.09488
1.14435
1.19631
1.25091
1.30831
1.36867
1.43218
1.49902
1.5694
1.64353
1.72165
1.804
1.89082
1.98193
2.07745
2.17792
2.28373
2.39521
2.51264
2.63625
2.76615
2.90228
3.04426
3.19119
3.34125
3.49106
3.63469
3.76196
3.85606
3.89038
3.82581
3.61255
3.20631
2.61159
1.95493
1.45523
1.22776
1.1713
1.16234
1.16116
1.16102
1.161
1.161
1.161
1.161
1.161
1.161
1.161
1.161
1.161
1.161
1.161
1.161
1.161
1.161
1.161
1.161
1.161
1.161
1.161
1.161
1.161
1.161
1.161
1.161
1.161
1.161
1.161
1.161
1.161
1.161
1.161
1.161
1.161
1.161
1.161
1.161
1.161
1.161
1.161
1.161
1.161
1.161
1.161
1.161
1.161
1.161
1.161
1.161
1.161
1.161
1.161
1.161
1.161
1.161
1.161
1.161
1.161
1.161
1.161
1.161
1.161
1.161
1.161
1.161
1.161
1.161
1.161
1.161
1.161
1.161
1.161
1.161
1.161
1.161
1.161
1.161
1.161
1.161
1.161
1.161
1.161
1.161
1.161
1.161
1.161
1.161
1.161
1.161
1.161
1.161
1.161
1.161
1.161
1.161
1.161
1.161
1.161
1.161
1.161
1.161
1.161
1.161
1.161
1.161
1.161
1.161
1.161
1.161
1.161
1.161
1.161
1.161
1.161
1.161
1.161
1.161
1.161
1.161
1.161
1.161
1.161
1.161
1.161
1.161
1.161
1.161
1.161
1.161
1.161
1.161
1.161
1.161
1.161
1.161
1.161
1.161
1.161
1.161
1.161
1.161
1.161
1.161
1.161
1.161
1.161
1.161
1.161
1.161
1.161
1.161
1.161
1.161
1.161
1.161
1.161
1.161
1.161
1.161
1.161
1.161
1.161
1.161
1.161
1.161
1.161
1.161
1.161
1.161
1.161
1.161
1.161
1.161
1.161
1.161
1.161
1.161
1.161
1.161
1.161
1.161
1.161
1.161
1.161
1.161
1.161
1.161
1.161
1.161
1.161
1.161
1.161
1.161
1.161
1.161
1.161
1.161
1.161
1.161
1.161
1.161
1.161
1.161
1.161
1.161
1.161
1.161
1.161
1.161
1.161
1.161
1.161
1.161
1.161
1.161
1.161
1.161
1.161
1.161
1.161
1.161
1.161
1.161
1.161
1.161
1.161
1.161
1.161
1.161
1.161
1.161
1.161
1.161
1.161
1.161
1.161
1.161
1.161
1.161
1.161
1.161
1.161
1.161
1.161
1.161
1.161
1.161
1.161
1.161
1.161
1.161
1.161
1.161
1.161
1.161
1.161
1.161
1.161
1.161
1.161
1.161
1.161
1.161
1.161
1.161
)
;

boundaryField
{
    wedge0
    {
        type            wedge;
    }
    wedge1
    {
        type            wedge;
    }
    wedge2
    {
        type            wedge;
    }
    wedge3
    {
        type            wedge;
    }
    outlet
    {
        type            zeroGradient;
    }
    defaultFaces
    {
        type            empty;
    }
}


// ************************************************************************* //
