/*--------------------------------*- C++ -*----------------------------------*\
| =========                 |                                                 |
| \\      /  F ield         | OpenFOAM: The Open Source CFD Toolbox           |
|  \\    /   O peration     | Version:  2312                                  |
|   \\  /    A nd           | Website:  www.openfoam.com                      |
|    \\/     M anipulation  |                                                 |
\*---------------------------------------------------------------------------*/
FoamFile
{
    version     2.0;
    format      ascii;
    arch        "LSB;label=32;scalar=64";
    class       volScalarField;
    location    "8e-05";
    object      T;
}
// * * * * * * * * * * * * * * * * * * * * * * * * * * * * * * * * * * * * * //

dimensions      [0 0 0 1 0 0 0];

internalField   nonuniform List<scalar> 
500
(
274094
274032
273870
273614
273266
272829
272302
271688
270986
270198
269325
268367
267326
266202
264997
263713
262349
260909
259393
257802
256139
254405
252601
250730
248793
246792
244729
242606
240424
238187
235896
233552
231159
228717
226231
223701
221129
218519
215871
213189
210475
207730
204958
202160
199338
196494
193632
190752
187858
184951
182032
179106
176172
173234
170293
167352
164411
161474
158541
155615
152698
149790
146894
144011
141143
138291
135457
132642
129847
127074
124324
121599
118899
116225
113578
110960
108372
105814
103287
100791
98328.7
95899.4
93504
91143.1
88817.3
86527
84272.7
82054.7
79873.4
77729.2
75622.3
73552.8
71521
69527
67571
65652.8
63772.7
61930.6
60126.3
58359.9
56631.3
54940.2
53286.5
51670
50090.5
48547.7
47041.3
45571
44136.4
42737.4
41373.3
40043.9
38748.8
37487.5
36259.5
35064.5
33901.9
32771.3
31672.1
30603.8
29566
28558.1
27579.6
26629.8
25708.4
24814.7
23948.1
23108.2
22294.3
21506
20742.5
20003.4
19288.1
18596
17926.6
17279.4
16653.7
16049
15464.8
14900.5
14355.6
13829.6
13321.9
12832
12359.5
11903.8
11464.3
11040.7
10632.5
10239.1
9860.19
9495.2
9143.73
8805.34
8479.61
8166.12
7864.46
7574.23
7295.06
7026.55
6768.34
6520.07
6281.39
6051.96
5831.45
5619.54
5415.92
5220.28
5032.34
4851.79
4678.38
4511.83
4351.89
4198.31
4050.84
3909.25
3773.31
3642.82
3517.55
3397.31
3281.9
3171.14
3064.84
2962.83
2864.94
2771.02
2680.89
2594.43
2511.47
2431.9
2355.56
2282.35
2212.13
2144.79
2080.21
2018.3
1958.94
1902.05
1847.52
1795.26
1745.19
1697.23
1651.3
1607.32
1565.22
1524.94
1486.4
1449.54
1414.56
1381.45
1349.97
1319.96
1291.32
1263.97
1237.85
1212.87
1188.95
1165.97
1143.78
1122.15
1100.72
1078.95
1055.97
1030.34
999.688
959.972
904.265
821.036
697.447
534.449
381.893
313.578
301.47
300.157
300.018
300.002
300
300
300
300
300
300
300
300
300
300
300
300
300
300
300
300
300
300
300
300
300
300
300
300
300
300
300
300
300
300
300
300
300
300
300
300
300
300
300
300
300
300
300
300
300
300
300
300
300
300
300
300
300
300
300
300
300
300
300
300
300
300
300
300
300
300
300
300
300
300
300
300
300
300
300
300
300
300
300
300
300
300
300
300
300
300
300
300
300
300
300
300
300
300
300
300
300
300
300
300
300
300
300
300
300
300
300
300
300
300
300
300
300
300
300
300
300
300
300
300
300
300
300
300
300
300
300
300
300
300
300
300
300
300
300
300
300
300
300
300
300
300
300
300
300
300
300
300
300
300
300
300
300
300
300
300
300
300
300
300
300
300
300
300
300
300
300
300
300
300
300
300
300
300
300
300
300
300
300
300
300
300
300
300
300
300
300
300
300
300
300
300
300
300
300
300
300
300
300
300
300
300
300
300
300
300
300
300
300
300
300
300
300
300
300
300
300
300
300
300
300
300
300
300
300
300
300
300
300
300
300
300
300
300
300
300
300
300
300
300
300
300
300
300
300
300
300
300
300
300
300
300
300
300
300
300
300
300
300
300
300
300
300
300
)
;

boundaryField
{
    wedge0
    {
        type            wedge;
    }
    wedge1
    {
        type            wedge;
    }
    wedge2
    {
        type            wedge;
    }
    wedge3
    {
        type            wedge;
    }
    outlet
    {
        type            zeroGradient;
    }
    defaultFaces
    {
        type            empty;
    }
}


// ************************************************************************* //
