/*--------------------------------*- C++ -*----------------------------------*\
| =========                 |                                                 |
| \\      /  F ield         | OpenFOAM: The Open Source CFD Toolbox           |
|  \\    /   O peration     | Version:  2312                                  |
|   \\  /    A nd           | Website:  www.openfoam.com                      |
|    \\/     M anipulation  |                                                 |
\*---------------------------------------------------------------------------*/
FoamFile
{
    version     2.0;
    format      ascii;
    arch        "LSB;label=32;scalar=64";
    class       volScalarField;
    location    "8e-05";
    object      thermo:e;
}
// * * * * * * * * * * * * * * * * * * * * * * * * * * * * * * * * * * * * * //

dimensions      [0 2 -2 0 0 0 0];

internalField   nonuniform List<scalar> 
500
(
1.96717e+08
1.96672e+08
1.96556e+08
1.96373e+08
1.96123e+08
1.95809e+08
1.95431e+08
1.9499e+08
1.94487e+08
1.93921e+08
1.93294e+08
1.92607e+08
1.9186e+08
1.91053e+08
1.90189e+08
1.89267e+08
1.88288e+08
1.87254e+08
1.86166e+08
1.85025e+08
1.83831e+08
1.82586e+08
1.81292e+08
1.79949e+08
1.78559e+08
1.77123e+08
1.75642e+08
1.74118e+08
1.72553e+08
1.70947e+08
1.69302e+08
1.6762e+08
1.65903e+08
1.64151e+08
1.62366e+08
1.6055e+08
1.58704e+08
1.56831e+08
1.54931e+08
1.53006e+08
1.51058e+08
1.49088e+08
1.47098e+08
1.4509e+08
1.43065e+08
1.41024e+08
1.3897e+08
1.36903e+08
1.34826e+08
1.32739e+08
1.30645e+08
1.28544e+08
1.26439e+08
1.2433e+08
1.2222e+08
1.20108e+08
1.17998e+08
1.1589e+08
1.13785e+08
1.11685e+08
1.09591e+08
1.07504e+08
1.05426e+08
1.03357e+08
1.01298e+08
9.92514e+07
9.72173e+07
9.51969e+07
9.31913e+07
9.12012e+07
8.92277e+07
8.72715e+07
8.53335e+07
8.34145e+07
8.15152e+07
7.96363e+07
7.77785e+07
7.59425e+07
7.41288e+07
7.23379e+07
7.05705e+07
6.8827e+07
6.71078e+07
6.54134e+07
6.37442e+07
6.21004e+07
6.04825e+07
5.88907e+07
5.73252e+07
5.57863e+07
5.42741e+07
5.27888e+07
5.13306e+07
4.98996e+07
4.84957e+07
4.7119e+07
4.57697e+07
4.44476e+07
4.31527e+07
4.18849e+07
4.06443e+07
3.94306e+07
3.82437e+07
3.70836e+07
3.59499e+07
3.48427e+07
3.37615e+07
3.27063e+07
3.16767e+07
3.06726e+07
2.96936e+07
2.87395e+07
2.781e+07
2.69048e+07
2.60235e+07
2.51658e+07
2.43314e+07
2.35199e+07
2.27311e+07
2.19644e+07
2.12195e+07
2.04962e+07
1.97939e+07
1.91122e+07
1.84509e+07
1.78095e+07
1.71876e+07
1.65848e+07
1.60006e+07
1.54348e+07
1.48869e+07
1.43564e+07
1.38431e+07
1.33464e+07
1.28659e+07
1.24014e+07
1.19523e+07
1.15184e+07
1.10991e+07
1.06941e+07
1.0303e+07
9.92549e+06
9.56112e+06
9.20955e+06
8.87041e+06
8.54333e+06
8.22795e+06
7.92394e+06
7.63095e+06
7.34863e+06
7.07666e+06
6.8147e+06
6.56245e+06
6.31959e+06
6.08582e+06
5.86082e+06
5.64432e+06
5.43603e+06
5.23566e+06
5.04295e+06
4.85764e+06
4.67945e+06
4.50815e+06
4.34349e+06
4.18523e+06
4.03315e+06
3.88701e+06
3.7466e+06
3.61171e+06
3.48213e+06
3.35767e+06
3.23814e+06
3.12335e+06
3.01312e+06
2.90728e+06
2.80567e+06
2.70811e+06
2.61445e+06
2.52455e+06
2.43825e+06
2.35542e+06
2.27593e+06
2.19964e+06
2.12643e+06
2.05617e+06
1.98876e+06
1.92408e+06
1.86202e+06
1.80249e+06
1.74537e+06
1.69059e+06
1.63804e+06
1.58764e+06
1.53931e+06
1.49297e+06
1.44853e+06
1.40593e+06
1.3651e+06
1.32596e+06
1.28846e+06
1.25253e+06
1.21811e+06
1.18514e+06
1.15358e+06
1.12336e+06
1.09445e+06
1.06679e+06
1.04033e+06
1.01523e+06
991468
968874
947335
926779
907152
888402
870475
853308
836818
820893
805366
789987
774363
757868
739475
717476
688972
648991
589258
500558
383574
274085
225055
216365
215423
215323
215311
215310
215310
215310
215310
215310
215310
215310
215310
215310
215310
215310
215310
215310
215310
215310
215310
215310
215310
215310
215310
215310
215310
215310
215310
215310
215310
215310
215310
215310
215310
215310
215310
215310
215310
215310
215310
215310
215310
215310
215310
215310
215310
215310
215310
215310
215310
215310
215310
215310
215310
215310
215310
215310
215310
215310
215310
215310
215310
215310
215310
215310
215310
215310
215310
215310
215310
215310
215310
215310
215310
215310
215310
215310
215310
215310
215310
215310
215310
215310
215310
215310
215310
215310
215310
215310
215310
215310
215310
215310
215310
215310
215310
215310
215310
215310
215310
215310
215310
215310
215310
215310
215310
215310
215310
215310
215310
215310
215310
215310
215310
215310
215310
215310
215310
215310
215310
215310
215310
215310
215310
215310
215310
215310
215310
215310
215310
215310
215310
215310
215310
215310
215310
215310
215310
215310
215310
215310
215310
215310
215310
215310
215310
215310
215310
215310
215310
215310
215310
215310
215310
215310
215310
215310
215310
215310
215310
215310
215310
215310
215310
215310
215310
215310
215310
215310
215310
215310
215310
215310
215310
215310
215310
215310
215310
215310
215310
215310
215310
215310
215310
215310
215310
215310
215310
215310
215310
215310
215310
215310
215310
215310
215310
215310
215310
215310
215310
215310
215310
215310
215310
215310
215310
215310
215310
215310
215310
215310
215310
215310
215310
215310
215310
215310
215310
215310
215310
215310
215310
215310
215310
215310
215310
215310
215310
215310
215310
215310
215310
215310
215310
215310
215310
215310
215310
215310
215310
215310
215310
215310
215310
215310
215310
215310
215310
215310
215310
215310
215310
215310
215310
215310
215310
215310
215310
215310
215310
215310
215310
215310
215310
215310
215310
215310
215310
)
;

boundaryField
{
    wedge0
    {
        type            wedge;
    }
    wedge1
    {
        type            wedge;
    }
    wedge2
    {
        type            wedge;
    }
    wedge3
    {
        type            wedge;
    }
    outlet
    {
        type            zeroGradient;
    }
    defaultFaces
    {
        type            empty;
    }
}


// ************************************************************************* //
