/*--------------------------------*- C++ -*----------------------------------*\
| =========                 |                                                 |
| \\      /  F ield         | OpenFOAM: The Open Source CFD Toolbox           |
|  \\    /   O peration     | Version:  2312                                  |
|   \\  /    A nd           | Website:  www.openfoam.com                      |
|    \\/     M anipulation  |                                                 |
\*---------------------------------------------------------------------------*/
FoamFile
{
    version     2.0;
    format      ascii;
    arch        "LSB;label=32;scalar=64";
    class       volVectorField;
    location    "8e-05";
    object      U;
}
// * * * * * * * * * * * * * * * * * * * * * * * * * * * * * * * * * * * * * //

dimensions      [0 1 -1 0 0 0 0];

internalField   nonuniform List<vector> 
500
(
(3.21296 -3.54598e-10 3.77017e-10)
(5.78503 -3.58832e-10 3.63392e-10)
(8.65404 -3.72144e-10 3.73217e-10)
(11.7014 -3.67947e-10 3.71923e-10)
(14.8199 -3.48834e-10 3.52383e-10)
(17.9729 -3.44543e-10 3.4751e-10)
(21.145 -3.38044e-10 3.39258e-10)
(24.3288 -3.29754e-10 3.30314e-10)
(27.5204 -3.14974e-10 3.14999e-10)
(30.7173 -2.91563e-10 2.92046e-10)
(33.918 -2.69246e-10 2.70064e-10)
(37.1217 -2.49057e-10 2.49528e-10)
(40.3275 -2.29763e-10 2.29955e-10)
(43.5351 -2.10972e-10 2.10979e-10)
(46.7442 -1.92325e-10 1.92348e-10)
(49.9544 -1.74588e-10 1.74606e-10)
(53.1656 -1.60398e-10 1.60387e-10)
(56.3776 -1.50551e-10 1.50568e-10)
(59.5903 -1.42267e-10 1.42261e-10)
(62.8036 -1.37937e-10 1.37932e-10)
(66.0175 -1.35875e-10 1.35873e-10)
(69.2319 -1.34008e-10 1.34044e-10)
(72.4467 -1.32767e-10 1.32779e-10)
(75.662 -1.32946e-10 1.32974e-10)
(78.8776 -1.31929e-10 1.31981e-10)
(82.0935 -1.28518e-10 1.28531e-10)
(85.3098 -1.25927e-10 1.25935e-10)
(88.5264 -1.24167e-10 1.24182e-10)
(91.7433 -1.1996e-10 1.1997e-10)
(94.9604 -1.15339e-10 1.1534e-10)
(98.1778 -1.11889e-10 1.11891e-10)
(101.396 -1.08069e-10 1.08069e-10)
(104.613 -1.03206e-10 1.03206e-10)
(107.832 -9.86676e-11 9.86676e-11)
(111.05 -9.48697e-11 9.48697e-11)
(114.269 -9.14174e-11 9.14174e-11)
(117.488 -8.78414e-11 8.78414e-11)
(120.707 -8.3861e-11 8.3861e-11)
(123.926 -7.93944e-11 7.93944e-11)
(127.146 -7.56938e-11 7.56938e-11)
(130.366 -7.14393e-11 7.14393e-11)
(133.586 -6.66526e-11 6.66526e-11)
(136.806 -6.14236e-11 6.14236e-11)
(140.027 -5.65469e-11 5.65469e-11)
(143.248 -5.19448e-11 5.19448e-11)
(146.469 -4.78023e-11 4.78023e-11)
(149.69 -4.32805e-11 4.32805e-11)
(152.912 -3.85724e-11 3.85724e-11)
(156.134 -3.2862e-11 3.2862e-11)
(159.356 -2.78917e-11 2.78917e-11)
(162.579 -2.35935e-11 2.35935e-11)
(165.801 -1.99232e-11 1.99232e-11)
(169.025 -1.62095e-11 1.62095e-11)
(172.248 -1.30419e-11 1.30419e-11)
(175.472 -9.55966e-12 9.55966e-12)
(178.696 -6.24586e-12 6.24586e-12)
(181.92 -3.37823e-12 3.37823e-12)
(185.145 -9.23601e-13 9.23601e-13)
(188.37 1.14504e-12 -1.14504e-12)
(191.596 2.86212e-12 -2.86212e-12)
(194.821 3.61563e-12 -3.61563e-12)
(198.048 4.0664e-12 -4.0664e-12)
(201.274 4.23642e-12 -4.23642e-12)
(204.501 4.13783e-12 -4.13783e-12)
(207.729 3.97095e-12 -3.97095e-12)
(210.957 3.76247e-12 -3.76247e-12)
(214.185 3.7525e-12 -3.7525e-12)
(217.414 3.92141e-12 -3.92141e-12)
(220.643 3.64589e-12 -3.64589e-12)
(223.873 3.6067e-12 -3.6067e-12)
(227.104 3.56123e-12 -3.56123e-12)
(230.335 3.51809e-12 -3.51809e-12)
(233.566 3.42505e-12 -3.42505e-12)
(236.798 3.4943e-12 -3.4943e-12)
(240.031 3.38055e-12 -3.38058e-12)
(243.264 3.5069e-12 -3.507e-12)
(246.498 3.31014e-12 -3.31042e-12)
(249.733 3.27626e-12 -3.2751e-12)
(252.968 3.08826e-12 -3.07841e-12)
(256.204 2.60988e-12 -2.59413e-12)
(259.441 2.16466e-12 -2.14222e-12)
(262.678 1.98707e-12 -1.95626e-12)
(265.916 1.76254e-12 -1.71813e-12)
(269.156 1.28173e-12 -1.22398e-12)
(272.396 5.48335e-13 -4.76404e-13)
(275.637 -2.47188e-13 3.00349e-13)
(278.878 -8.33907e-13 8.67902e-13)
(282.121 -1.2284e-12 1.24784e-12)
(285.365 -1.42577e-12 1.42904e-12)
(288.61 -1.50972e-12 1.51286e-12)
(291.856 -1.62128e-12 1.61534e-12)
(295.103 -1.55053e-12 1.53659e-12)
(298.351 -1.47273e-12 1.49101e-12)
(301.6 -1.41114e-12 1.42638e-12)
(304.851 -1.17879e-12 1.19139e-12)
(308.103 -9.2291e-13 9.07428e-13)
(311.356 -8.19101e-13 7.76057e-13)
(314.611 -6.32293e-13 6.31246e-13)
(317.868 -4.5734e-13 4.63264e-13)
(321.125 -2.58194e-13 2.71823e-13)
(324.385 -1.90853e-13 2.1291e-13)
(327.646 -1.29213e-13 1.61487e-13)
(330.909 -5.31397e-15 3.98789e-14)
(334.173 0 -1.46937e-14)
(337.44 6.94489e-14 -1.98101e-13)
(340.709 2.32078e-13 -3.47274e-13)
(343.979 2.9359e-13 -3.9503e-13)
(347.252 4.77299e-13 -5.64579e-13)
(350.527 5.73507e-13 -6.45154e-13)
(353.804 7.89795e-13 -8.45471e-13)
(357.084 1.13844e-12 -1.17741e-12)
(360.366 1.59259e-12 -1.59261e-12)
(363.651 1.74336e-12 -1.74947e-12)
(366.939 1.89609e-12 -1.90106e-12)
(370.23 2.14451e-12 -2.14828e-12)
(373.524 2.18804e-12 -2.18989e-12)
(376.82 2.00936e-12 -2.00853e-12)
(380.121 1.8189e-12 -1.8192e-12)
(383.424 1.54502e-12 -1.54457e-12)
(386.731 1.23721e-12 -1.23687e-12)
(390.042 1.11836e-12 -1.11814e-12)
(393.357 1.04918e-12 -1.04905e-12)
(396.676 7.72403e-13 -7.72168e-13)
(400 5.23327e-13 -5.23052e-13)
(403.327 3.6626e-13 -3.66131e-13)
(406.66 3.10187e-13 -3.10403e-13)
(409.997 2.30598e-13 -2.30571e-13)
(413.34 2.28694e-13 -2.28886e-13)
(416.688 2.28539e-13 -2.28311e-13)
(420.042 2.27566e-13 -2.27569e-13)
(423.401 2.11376e-13 -2.11417e-13)
(426.767 8.98304e-14 -8.964e-14)
(430.139 4.11825e-14 -4.10532e-14)
(433.518 -1.17133e-13 1.17133e-13)
(436.904 -2.25232e-13 2.25232e-13)
(440.297 -2.50224e-13 2.50224e-13)
(443.699 -1.96302e-13 1.96302e-13)
(447.108 -2.18886e-13 2.18886e-13)
(450.526 -2.17148e-13 2.17148e-13)
(453.953 -2.16501e-13 2.16501e-13)
(457.389 -2.16862e-13 2.16862e-13)
(460.835 -2.15696e-13 2.15696e-13)
(464.291 -2.42872e-13 2.42872e-13)
(467.758 -2.12246e-13 2.12246e-13)
(471.236 -2.10528e-13 2.10528e-13)
(474.726 -1.70306e-13 1.70306e-13)
(478.228 -1.86942e-13 1.86942e-13)
(481.744 -1.49504e-13 1.49504e-13)
(485.272 -5.65754e-14 5.65754e-14)
(488.816 3.07743e-14 -3.07743e-14)
(492.373 3.70467e-14 -3.70467e-14)
(495.947 -1.22643e-14 1.22643e-14)
(499.537 1.64575e-14 -1.64575e-14)
(503.144 5.3541e-14 -5.3541e-14)
(506.769 -5.99011e-15 5.99011e-15)
(510.412 0 0)
(514.076 -8.78927e-15 8.76166e-15)
(517.76 -7.07511e-14 7.07888e-14)
(521.465 -6.06334e-14 6.07964e-14)
(525.193 -1.5141e-13 1.51952e-13)
(528.945 -2.12648e-13 2.13167e-13)
(532.722 -1.95735e-13 1.9641e-13)
(536.524 -1.67996e-13 1.68533e-13)
(540.354 -2.49161e-13 2.49538e-13)
(544.212 -2.22413e-13 2.22396e-13)
(548.1 -2.08084e-13 2.08077e-13)
(552.019 -1.91417e-13 1.91434e-13)
(555.97 -1.2826e-13 1.28341e-13)
(559.956 -1.25099e-13 1.25223e-13)
(563.977 -1.02541e-13 1.02626e-13)
(568.036 -1.01138e-13 1.01161e-13)
(572.134 -1.45161e-13 1.45101e-13)
(576.272 -1.48992e-13 1.48908e-13)
(580.453 -1.32748e-13 1.32643e-13)
(584.678 -1.42631e-13 1.4253e-13)
(588.95 -1.43656e-13 1.43567e-13)
(593.271 -1.24147e-13 1.24087e-13)
(597.642 -1.21714e-13 1.21719e-13)
(602.065 -1.22347e-13 1.22363e-13)
(606.545 -8.95916e-14 8.96769e-14)
(611.081 -5.05936e-14 5.06944e-14)
(615.678 -4.31672e-14 4.32701e-14)
(620.337 -2.79764e-14 2.80692e-14)
(625.061 -1.46793e-14 1.47497e-14)
(629.853 -4.01156e-15 4.06194e-15)
(634.716 0 0)
(639.652 0 0)
(644.664 0 0)
(649.756 0 0)
(654.93 0 0)
(660.19 1.4561e-14 -1.4561e-14)
(665.539 1.41628e-14 -1.41628e-14)
(670.979 3.80857e-15 -3.80857e-15)
(676.515 -6.58078e-15 6.58078e-15)
(682.15 4.48651e-15 -4.48651e-15)
(687.886 0 0)
(693.729 -1.02666e-14 1.02666e-14)
(699.679 -9.6595e-15 9.6595e-15)
(705.743 -1.68267e-15 1.68267e-15)
(711.922 8.03794e-15 -8.03359e-15)
(718.219 1.63502e-14 -1.63365e-14)
(724.639 2.07191e-14 -2.06986e-14)
(731.185 1.51019e-14 -1.50772e-14)
(737.859 9.27688e-15 -9.25207e-15)
(744.663 1.71506e-15 -1.68259e-15)
(751.6 -4.7131e-15 4.74426e-15)
(758.671 1.62172e-15 -1.59224e-15)
(765.876 -4.56897e-15 4.56812e-15)
(773.236 1.1459e-15 -1.14235e-15)
(780.742 -1.69802e-15 1.7463e-15)
(788.378 -2.49396e-16 2.66522e-16)
(796.138 -1.29197e-15 1.29917e-15)
(804.009 -6.69391e-15 6.70596e-15)
(811.975 -8.7029e-15 8.71016e-15)
(820.002 -1.17815e-14 1.17852e-14)
(828.04 -2.67935e-14 2.67978e-14)
(836.009 -2.52832e-14 2.52778e-14)
(843.78 -2.10403e-14 2.10515e-14)
(851.144 -1.70912e-14 1.70943e-14)
(857.77 -1.44708e-14 1.44743e-14)
(863.122 -1.2045e-14 1.20483e-14)
(866.336 -9.80953e-15 9.81277e-15)
(866.009 -7.72878e-15 7.73086e-15)
(859.862 -5.72944e-15 5.72944e-15)
(844.182 1.3261e-15 -1.3261e-15)
(812.952 1.32752e-15 -1.32752e-15)
(756.601 -8.02089e-16 8.02089e-16)
(660.913 -6.5336e-15 6.5336e-15)
(511.21 -7.78973e-15 7.78973e-15)
(311.563 -9.718e-15 9.718e-15)
(121.05 -1.29373e-14 1.29373e-14)
(25.1235 -7.08746e-15 7.08746e-15)
(3.41987 -2.00057e-15 2.00057e-15)
(0.416096 0 0)
(0.0496316 0 0)
(0.00587636 0 0)
(0.000691631 0 0)
(8.09376e-05 0 0)
(9.41814e-06 0 0)
(1.08978e-06 -2.85142e-15 2.85142e-15)
(1.2539e-07 -9.60315e-15 9.60315e-15)
(1.43394e-08 -4.62224e-15 4.62224e-15)
(1.63192e-09 1.62195e-15 -1.62195e-15)
(1.99637e-10 1.93009e-14 -1.93009e-14)
(3.68773e-11 2.54463e-14 -2.54463e-14)
(8.26825e-12 2.30872e-14 -2.30872e-14)
(-1.19009e-12 9.54569e-15 -9.54569e-15)
(8.92002e-12 7.2252e-15 -7.2252e-15)
(2.16148e-11 8.4698e-15 -8.4698e-15)
(1.65984e-11 -1.23008e-15 1.23008e-15)
(3.10046e-12 -5.45988e-18 5.45988e-18)
(-6.03084e-12 0 0)
(-9.68632e-12 0 0)
(-1.44845e-11 0 0)
(-1.29504e-11 0 0)
(-9.93222e-12 0 0)
(-1.46869e-11 -1.70518e-15 1.70518e-15)
(-1.13991e-11 -6.81918e-15 6.81918e-15)
(-4.97383e-12 -1.70579e-15 1.70579e-15)
(-8.81108e-12 0 0)
(3.07927e-12 0 0)
(1.81195e-11 0 0)
(8.82946e-12 1.59264e-15 -1.59264e-15)
(-7.02097e-12 6.44027e-15 -6.44027e-15)
(-1.07054e-11 1.44942e-14 -1.44942e-14)
(-1.05382e-11 1.2831e-14 -1.2831e-14)
(-1.84592e-11 1.43735e-14 -1.43735e-14)
(-2.14427e-11 6.39223e-15 -6.39223e-15)
(-1.45564e-11 1.61693e-15 -1.61693e-15)
(-3.58497e-12 0 0)
(4.36512e-12 0 0)
(8.81251e-12 0 0)
(1.54033e-11 0 0)
(1.5389e-11 0 0)
(1.12641e-11 -1.48964e-15 1.48964e-15)
(4.32186e-12 -5.95699e-15 5.95699e-15)
(1.32993e-11 -1.48984e-15 1.48984e-15)
(3.19604e-11 0 0)
(3.34348e-11 0 0)
(1.20476e-11 0 0)
(1.82415e-12 0 0)
(3.87993e-12 9.41209e-16 -9.41209e-16)
(-5.61685e-13 4.71773e-15 -4.71773e-15)
(-4.14706e-12 0 0)
(-9.5748e-12 -4.65719e-15 4.65719e-15)
(-1.55941e-11 -9.34518e-16 9.34518e-16)
(-1.81732e-11 0 0)
(-6.81787e-12 0 0)
(6.40519e-12 -2.71617e-15 2.71617e-15)
(8.87746e-12 0 0)
(2.98383e-12 0 0)
(2.18535e-13 1.78056e-15 -1.78056e-15)
(1.25376e-12 -1.75562e-15 1.75562e-15)
(-4.95065e-12 0 0)
(7.96282e-13 0 0)
(1.05246e-11 1.73278e-15 -1.73278e-15)
(1.03239e-11 -1.70791e-15 1.70791e-15)
(1.09159e-11 0 0)
(8.93314e-12 0 0)
(3.42712e-12 0 0)
(-4.63e-12 -2.50245e-15 2.50245e-15)
(-3.99166e-12 1.109e-18 -1.109e-18)
(6.20128e-12 -2.47054e-15 2.47054e-15)
(1.37986e-11 0 0)
(8.11443e-12 2.43849e-15 -2.43849e-15)
(-1.39866e-12 0 0)
(-4.37312e-12 0 0)
(-5.10387e-12 0 0)
(-7.31499e-12 -4.75067e-15 4.75067e-15)
(-2.11781e-11 -4.73551e-15 4.73551e-15)
(-3.33976e-11 -1.60424e-17 1.60424e-17)
(-4.40847e-11 0 0)
(-3.9508e-11 0 0)
(-8.8549e-12 0 0)
(1.69367e-11 2.28381e-15 -2.28381e-15)
(2.44233e-11 0 0)
(1.59368e-11 0 0)
(2.71784e-11 -3.84066e-16 3.84066e-16)
(3.74929e-11 -5.23578e-15 5.23578e-15)
(2.23117e-11 -1.4499e-14 1.4499e-14)
(-2.06661e-12 -1.92889e-14 1.92889e-14)
(-8.1966e-12 -1.96599e-14 1.96599e-14)
(6.07303e-12 -1.5671e-14 1.5671e-14)
(1.17837e-11 -1.60362e-14 1.60362e-14)
(9.76902e-12 -1.20955e-14 1.20955e-14)
(6.48307e-12 -3.89607e-15 3.89607e-15)
(1.85338e-12 0 0)
(-7.101e-12 0 0)
(-1.64346e-11 2.09509e-15 -2.09509e-15)
(-1.29351e-11 0 0)
(6.2684e-12 0 0)
(1.74157e-11 0 0)
(1.58002e-11 0 0)
(5.68705e-12 -4.06519e-15 4.06519e-15)
(-5.36839e-12 -4.05204e-15 4.05204e-15)
(-1.14274e-11 -1.27789e-17 1.27789e-17)
(-1.11424e-11 0 0)
(-1.72122e-11 0 0)
(-2.33578e-11 0 0)
(-2.05877e-11 0 0)
(-1.87841e-11 0 0)
(-6.79003e-12 -1.93843e-15 1.93843e-15)
(-9.76029e-13 0 0)
(-9.39795e-12 0 0)
(-1.35651e-11 1.90479e-15 -1.90479e-15)
(3.41072e-12 2.80426e-18 -2.80426e-18)
(2.0182e-11 1.88309e-15 -1.88309e-15)
(1.39805e-11 0 0)
(1.49761e-12 -3.09648e-15 3.09648e-15)
(-1.9202e-12 -2.46339e-15 2.46339e-15)
(2.60156e-12 -5.52344e-15 5.52344e-15)
(-6.27182e-12 -4.89668e-15 4.89668e-15)
(-3.06355e-12 -6.22326e-16 6.22326e-16)
(9.76648e-12 0 0)
(1.23917e-11 0 0)
(9.58832e-12 1.7888e-15 -1.7888e-15)
(3.7927e-12 0 0)
(1.51863e-12 -4.24135e-15 4.24135e-15)
(-7.06142e-13 -4.93164e-15 4.93164e-15)
(-7.6207e-12 -2.10969e-15 2.10969e-15)
(-1.58349e-11 -2.79138e-15 2.79138e-15)
(-1.58267e-11 0 0)
(-1.03758e-11 0 0)
(3.73211e-12 -1.71046e-15 1.71046e-15)
(5.7483e-12 4.68433e-19 -4.68433e-19)
(6.01063e-12 -1.69311e-15 1.69311e-15)
(4.63571e-12 0 0)
(-1.09344e-11 1.67408e-15 -1.67408e-15)
(-1.75265e-11 0 0)
(-7.64202e-12 0 0)
(-2.3359e-12 -7.97512e-16 7.97512e-16)
(-1.07449e-11 -4.87664e-15 4.87664e-15)
(-6.83049e-12 -5.66569e-15 5.66569e-15)
(2.16917e-12 -9.6989e-15 9.6989e-15)
(4.74702e-12 -1.04785e-14 1.04785e-14)
(1.65656e-13 -8.03873e-15 8.03873e-15)
(-5.20398e-12 -2.4142e-15 2.4142e-15)
(-1.4469e-12 0 0)
(-3.41786e-12 0 0)
(-6.46871e-12 1.57113e-15 -1.57113e-15)
(-1.15804e-11 2.71733e-18 -2.71733e-18)
(-1.89801e-11 1.55461e-15 -1.55461e-15)
(-1.55232e-11 0 0)
(-1.09045e-11 0 0)
(-3.34786e-12 -1.5279e-15 1.5279e-15)
(1.4358e-12 0 0)
(2.05554e-12 0 0)
(6.68815e-12 0 0)
(8.6383e-12 2.99652e-15 -2.99652e-15)
(3.66512e-12 2.98786e-15 -2.98786e-15)
(4.37906e-12 8.73602e-18 -8.73602e-18)
(1.30494e-11 0 0)
(4.87061e-12 0 0)
(-7.04031e-12 1.46013e-15 -1.46013e-15)
(-1.28163e-11 0 0)
(-1.31066e-11 0 0)
(-3.66212e-12 0 0)
(1.32548e-12 0 0)
(-4.65999e-12 0 0)
(-7.73047e-12 0 0)
(-9.3975e-13 0 0)
(7.60756e-12 0 0)
(1.72651e-11 5.96245e-16 -5.96245e-16)
(2.1309e-11 3.97407e-15 -3.97407e-15)
(1.54776e-11 1.01028e-14 -1.01028e-14)
(1.37227e-11 1.34447e-14 -1.34447e-14)
(1.64783e-11 1.40262e-14 -1.40262e-14)
(1.31654e-11 6.41929e-15 -6.41929e-15)
(9.64642e-13 1.56298e-15 -1.56298e-15)
(-6.41314e-12 -5.68917e-16 5.68917e-16)
(-6.20522e-12 0 0)
(-6.9618e-12 0 0)
(-4.90528e-12 0 0)
(-5.80546e-12 0 0)
(-1.03972e-12 0 0)
(3.81219e-12 0 0)
(3.22792e-12 0 0)
(3.19751e-12 0 0)
(8.91816e-12 -8.63223e-16 8.63223e-16)
(2.23881e-11 8.53935e-16 -8.53935e-16)
(2.61863e-11 0 0)
(2.20337e-11 0 0)
(1.32569e-11 -1.26739e-15 1.26739e-15)
(6.95378e-12 -1.79693e-18 1.79693e-18)
(4.41358e-12 -1.25529e-15 1.25529e-15)
(-1.49041e-12 -1.53986e-18 1.53986e-18)
(-4.02279e-12 -1.24355e-15 1.24355e-15)
(-4.63018e-12 0 0)
(-8.07209e-12 -8.23088e-16 8.23088e-16)
(-1.86739e-12 8.14069e-16 -8.14069e-16)
(4.93617e-12 0 0)
(-1.43933e-11 1.21459e-15 -1.21459e-15)
(-2.00571e-11 1.16952e-18 -1.16952e-18)
(-1.14463e-11 1.20267e-15 -1.20267e-15)
(-4.36719e-12 0 0)
(3.96062e-12 7.95239e-16 -7.95239e-16)
(7.8231e-12 -7.89788e-16 7.89788e-16)
(2.48736e-12 0 0)
(-4.36684e-12 -9.22231e-16 9.22231e-16)
(-8.34624e-12 -4.1856e-15 4.1856e-15)
(-1.41839e-11 -9.76833e-15 9.76833e-15)
(-9.68346e-12 -8.35217e-15 8.35217e-15)
(1.05236e-11 0 0)
(6.19881e-12 8.2714e-15 -8.2714e-15)
(-1.255e-11 9.62662e-15 -9.62662e-15)
(-1.18359e-11 4.1287e-15 -4.1287e-15)
(-1.12323e-11 9.26006e-16 -9.26006e-16)
(6.29707e-12 0 0)
(3.39557e-11 9.53667e-16 -9.53667e-16)
(3.69036e-11 4.14528e-15 -4.14528e-15)
(1.83138e-11 6.24716e-16 -6.24716e-16)
(1.82523e-11 -1.68936e-15 1.68936e-15)
(2.17194e-11 -6.20536e-15 6.20536e-15)
(1.19341e-11 -4.09251e-15 4.09251e-15)
(5.83371e-12 -4.1816e-15 4.1816e-15)
(-4.61029e-12 -6.45343e-15 6.45343e-15)
(-8.41115e-12 -1.08887e-14 1.08887e-14)
(-6.50568e-12 -1.74675e-14 1.74675e-14)
(-8.26326e-12 -2.61147e-14 2.61147e-14)
(-3.8633e-12 -2.82916e-14 2.82916e-14)
(-1.80034e-12 -2.82887e-14 2.82887e-14)
(-1.04135e-13 -2.53482e-14 2.53482e-14)
(-5.0141e-12 -1.60669e-14 1.60669e-14)
(-1.18382e-11 -8.87322e-15 8.87322e-15)
(-7.42005e-12 -3.81003e-15 3.81003e-15)
(-7.71883e-12 -8.58503e-16 8.58503e-16)
(-3.482e-12 0 0)
(1.37934e-11 0 0)
(7.86033e-12 0 0)
(-7.35063e-12 0 0)
(-1.59505e-11 0 0)
(-8.50898e-12 6.73757e-16 -6.73757e-16)
(6.19802e-12 3.28875e-15 -3.28875e-15)
(-1.11086e-12 -1.67987e-16 1.67987e-16)
(-1.1379e-11 -5.62212e-15 5.62212e-15)
(-5.1748e-12 -5.04212e-15 5.04212e-15)
(1.56818e-11 -6.45969e-15 6.45969e-15)
(2.56095e-11 -1.91042e-15 1.91042e-15)
(1.43312e-11 6.41744e-16 -6.41744e-16)
(-7.61527e-12 3.70585e-15 -3.70585e-15)
(-2.35611e-11 8.70114e-16 -8.70114e-16)
(-2.41899e-11 0 0)
(-1.53921e-11 0 0)
(-1.99092e-11 -3.29883e-16 3.29883e-16)
(-2.61644e-11 -2.58757e-15 2.58757e-15)
(-8.89088e-12 -6.75752e-15 6.75752e-15)
(5.09109e-12 -5.16729e-15 5.16729e-15)
(5.68535e-12 -9.30148e-15 9.30148e-15)
(-5.82524e-12 -1.53165e-14 1.53165e-14)
(-2.084e-11 -2.31768e-14 2.31768e-14)
(-1.14588e-11 -2.53566e-14 2.53566e-14)
(4.53454e-12 -2.35029e-14 2.35029e-14)
(1.72447e-11 -1.60566e-14 1.60566e-14)
(2.08017e-11 -1.0479e-14 1.0479e-14)
(1.51921e-11 -6.77609e-15 6.77609e-15)
(2.43276e-11 -4.93269e-15 4.93269e-15)
(2.08769e-11 -4.93379e-15 4.93379e-15)
(1.5517e-11 -6.76469e-15 6.76469e-15)
(6.98615e-12 -3.11933e-15 3.11933e-15)
(-7.83974e-12 -1.30398e-15 1.30398e-15)
)
;

boundaryField
{
    wedge0
    {
        type            wedge;
    }
    wedge1
    {
        type            wedge;
    }
    wedge2
    {
        type            wedge;
    }
    wedge3
    {
        type            wedge;
    }
    outlet
    {
        type            zeroGradient;
    }
    defaultFaces
    {
        type            empty;
    }
}


// ************************************************************************* //
