/*--------------------------------*- C++ -*----------------------------------*\
| =========                 |                                                 |
| \\      /  F ield         | OpenFOAM: The Open Source CFD Toolbox           |
|  \\    /   O peration     | Version:  2312                                  |
|   \\  /    A nd           | Website:  www.openfoam.com                      |
|    \\/     M anipulation  |                                                 |
\*---------------------------------------------------------------------------*/
FoamFile
{
    version     2.0;
    format      ascii;
    arch        "LSB;label=32;scalar=64";
    class       volScalarField;
    location    "0.056";
    object      rho;
}
// * * * * * * * * * * * * * * * * * * * * * * * * * * * * * * * * * * * * * //

dimensions      [1 -3 0 0 0 0 0];

internalField   nonuniform List<scalar> 
100
(
0.458183
0.457091
0.455572
0.454061
0.452512
0.451022
0.449457
0.447993
0.446401
0.444952
0.443328
0.441861
0.440214
0.438666
0.43702
0.435311
0.433695
0.431749
0.430187
0.427961
0.426463
0.423966
0.422526
0.419832
0.418415
0.415673
0.414208
0.411625
0.410014
0.4078
0.40597
0.404262
0.402227
0.401028
0.398909
0.398097
0.396083
0.395483
0.393743
0.393217
0.391841
0.391334
0.390322
0.389853
0.389156
0.388775
0.388336
0.388089
0.387869
0.387786
0.387764
0.387856
0.388022
0.38829
0.388636
0.389073
0.389587
0.390184
0.390852
0.391597
0.392412
0.393303
0.394275
0.39535
0.396569
0.398024
0.399893
0.402514
0.406471
0.412645
0.422019
0.435112
0.451278
0.468614
0.484821
0.498271
0.508469
0.515769
0.520876
0.524472
0.527079
0.529051
0.53061
0.531897
0.532994
0.533956
0.534816
0.535599
0.536318
0.536988
0.537615
0.538208
0.53877
0.539305
0.539815
0.540302
0.540764
0.541201
0.541614
0.541898
)
;

boundaryField
{
    sides
    {
        type            zeroGradient;
    }
    empty
    {
        type            empty;
    }
}


// ************************************************************************* //
