/*--------------------------------*- C++ -*----------------------------------*\
| =========                 |                                                 |
| \\      /  F ield         | OpenFOAM: The Open Source CFD Toolbox           |
|  \\    /   O peration     | Version:  2312                                  |
|   \\  /    A nd           | Website:  www.openfoam.com                      |
|    \\/     M anipulation  |                                                 |
\*---------------------------------------------------------------------------*/
FoamFile
{
    version     2.0;
    format      ascii;
    arch        "LSB;label=32;scalar=64";
    class       volScalarField;
    location    "0.056";
    object      T;
}
// * * * * * * * * * * * * * * * * * * * * * * * * * * * * * * * * * * * * * //

dimensions      [0 0 0 1 0 0 0];

internalField   nonuniform List<scalar> 
100
(
226.02
225.621
225.154
224.467
224.109
223.274
223.125
222.044
222.214
220.794
221.359
219.59
220.509
218.547
219.583
217.807
218.502
217.498
217.215
217.693
215.718
218.381
214.074
219.435
212.424
220.597
210.994
221.51
210.047
221.825
209.763
221.347
210.128
220.136
210.905
218.475
211.739
216.72
212.317
215.135
212.491
213.824
212.282
212.759
211.808
211.861
211.193
211.063
210.529
210.329
209.869
209.646
209.235
209.01
208.636
208.415
208.07
207.856
207.529
207.32
207.005
206.797
206.489
206.287
205.995
205.824
205.607
205.583
205.657
206.157
207.09
208.784
211.035
213.729
216.245
218.4
219.855
220.848
221.323
221.62
221.664
221.718
221.648
221.659
221.592
221.621
221.586
221.644
221.641
221.721
221.742
221.836
221.871
221.972
222.013
222.116
222.156
222.259
222.292
222.403
)
;

boundaryField
{
    sides
    {
        type            zeroGradient;
    }
    empty
    {
        type            empty;
    }
}


// ************************************************************************* //
