/*--------------------------------*- C++ -*----------------------------------*\
| =========                 |                                                 |
| \\      /  F ield         | OpenFOAM: The Open Source CFD Toolbox           |
|  \\    /   O peration     | Version:  2312                                  |
|   \\  /    A nd           | Website:  www.openfoam.com                      |
|    \\/     M anipulation  |                                                 |
\*---------------------------------------------------------------------------*/
FoamFile
{
    version     2.0;
    format      ascii;
    arch        "LSB;label=32;scalar=64";
    class       volScalarField;
    location    "0.056";
    object      thermo:e;
}
// * * * * * * * * * * * * * * * * * * * * * * * * * * * * * * * * * * * * * //

dimensions      [0 2 -2 0 0 0 0];

internalField   nonuniform List<scalar> 
100
(
162553
162267
161931
161437
161179
160579
160472
159694
159816
158795
159201
157929
158590
157179
157924
156647
157147
156424
156221
156565
155145
157060
153962
157817
152775
158653
151747
159310
151066
159537
150861
159193
151124
158322
151683
157128
152283
155865
152698
154725
152823
153782
152673
153016
152332
152370
151890
151796
151413
151268
150938
150777
150482
150320
150051
149892
149644
149490
149255
149105
148878
148729
148507
148361
148152
148029
147873
147855
147909
148268
148939
150158
151776
153714
155523
157073
158120
158834
159176
159389
159421
159460
159409
159417
159369
159390
159365
159406
159404
159462
159477
159545
159569
159642
159671
159746
159775
159848
159872
159952
)
;

boundaryField
{
    sides
    {
        type            zeroGradient;
    }
    empty
    {
        type            empty;
    }
}


// ************************************************************************* //
