/*--------------------------------*- C++ -*----------------------------------*\
| =========                 |                                                 |
| \\      /  F ield         | OpenFOAM: The Open Source CFD Toolbox           |
|  \\    /   O peration     | Version:  2312                                  |
|   \\  /    A nd           | Website:  www.openfoam.com                      |
|    \\/     M anipulation  |                                                 |
\*---------------------------------------------------------------------------*/
FoamFile
{
    version     2.0;
    format      ascii;
    arch        "LSB;label=32;scalar=64";
    class       volScalarField;
    location    "0.004";
    object      rho;
}
// * * * * * * * * * * * * * * * * * * * * * * * * * * * * * * * * * * * * * //

dimensions      [1 -3 0 0 0 0 0];

internalField   nonuniform List<scalar> 
100
(
1.16102
1.16102
1.16102
1.16102
1.16102
1.16102
1.16102
1.16102
1.16102
1.16102
1.16102
1.16102
1.16102
1.16102
1.16102
1.16102
1.16102
1.16102
1.16102
1.16102
1.16102
1.16101
1.161
1.16097
1.1609
1.16072
1.16032
1.1595
1.15789
1.15499
1.15009
1.14237
1.13103
1.11541
1.09515
1.07023
1.041
1.00802
0.972024
0.933788
0.894021
0.853476
0.812479
0.771899
0.732319
0.691725
0.655678
0.621422
0.582889
0.551565
0.528325
0.508301
0.487386
0.467382
0.456372
0.461325
0.476026
0.479886
0.457007
0.411507
0.359704
0.315088
0.282508
0.261316
0.248773
0.241998
0.238881
0.23832
0.239607
0.240376
0.234207
0.213628
0.180211
0.14761
0.127706
0.119599
0.117058
0.116352
0.116166
0.116118
0.116106
0.116103
0.116102
0.116102
0.116102
0.116102
0.116102
0.116102
0.116102
0.116102
0.116102
0.116102
0.116102
0.116102
0.116102
0.116102
0.116102
0.116102
0.116102
0.116102
)
;

boundaryField
{
    sides
    {
        type            zeroGradient;
    }
    empty
    {
        type            empty;
    }
}


// ************************************************************************* //
