/*--------------------------------*- C++ -*----------------------------------*\
| =========                 |                                                 |
| \\      /  F ield         | OpenFOAM: The Open Source CFD Toolbox           |
|  \\    /   O peration     | Version:  2312                                  |
|   \\  /    A nd           | Website:  www.openfoam.com                      |
|    \\/     M anipulation  |                                                 |
\*---------------------------------------------------------------------------*/
FoamFile
{
    version     2.0;
    format      ascii;
    arch        "LSB;label=32;scalar=64";
    class       volVectorField;
    location    "0.004";
    object      U;
}
// * * * * * * * * * * * * * * * * * * * * * * * * * * * * * * * * * * * * * //

dimensions      [0 1 -1 0 0 0 0];

internalField   nonuniform List<vector> 
100
(
(-7.43844e-14 0 0)
(-1.58836e-13 0 0)
(4.62637e-14 0 0)
(9.34183e-14 0 0)
(5.74566e-14 0 0)
(2.6058e-14 0 0)
(6.5681e-14 0 0)
(1.20189e-12 0 0)
(7.62543e-12 0 0)
(4.59876e-11 0 0)
(2.65231e-10 0 0)
(1.44911e-09 0 0)
(7.48472e-09 0 0)
(3.65686e-08 0 0)
(1.69035e-07 0 0)
(7.39258e-07 0 0)
(3.05884e-06 0 0)
(1.19732e-05 0 0)
(4.4327e-05 0 0)
(0.000155171 0 0)
(0.000513424 0 0)
(0.00160495 0 0)
(0.00473718 0 0)
(0.0131938 0 0)
(0.0346487 0 0)
(0.0857264 0 0)
(0.199661 0 0)
(0.43741 0 0)
(0.900876 0 0)
(1.74408 0 0)
(3.17553 0 0)
(5.44523 0 0)
(8.81459 0 0)
(13.5159 0 0)
(19.7143 0 0)
(27.4861 0 0)
(36.8171 0 0)
(47.6196 0 0)
(59.7566 0 0)
(73.0719 0 0)
(87.379 0 0)
(102.619 0 0)
(118.271 0 0)
(135.296 0 0)
(151.166 0 0)
(169.182 0 0)
(187.17 0 0)
(202.105 0 0)
(220.296 0 0)
(237.827 0 0)
(252.543 0 0)
(263.669 0 0)
(271.827 0 0)
(278.813 0 0)
(285.103 0 0)
(288.314 0 0)
(286.266 0 0)
(280.151 0 0)
(273.343 0 0)
(268.798 0 0)
(267.795 0 0)
(269.95 0 0)
(273.812 0 0)
(277.733 0 0)
(280.679 0 0)
(282.538 0 0)
(284.046 0 0)
(286.384 0 0)
(289.506 0 0)
(288.432 0 0)
(271.728 0 0)
(228.276 0 0)
(158.851 0 0)
(83.8597 0 0)
(32.2539 0 0)
(9.84853 0 0)
(2.69902 0 0)
(0.70687 0 0)
(0.180267 0 0)
(0.044891 0 0)
(0.0108959 0 0)
(0.00256979 0 0)
(0.000587006 0 0)
(0.000129466 0 0)
(2.7493e-05 0 0)
(5.60739e-06 0 0)
(1.09604e-06 0 0)
(2.04923e-07 0 0)
(3.65866e-08 0 0)
(6.22823e-09 0 0)
(1.00956e-09 0 0)
(1.55776e-10 0 0)
(2.30138e-11 0 0)
(3.44605e-12 0 0)
(6.87103e-13 0 0)
(2.61282e-13 0 0)
(2.70792e-13 0 0)
(3.89105e-13 0 0)
(4.77323e-13 0 0)
(5.30737e-13 0 0)
)
;

boundaryField
{
    sides
    {
        type            mywaveTransmissive;
        gamma           1.4;
        value           nonuniform List<vector> 2((5.29659e-13 0 0) (-4.63109e-14 0 0));
    }
    empty
    {
        type            empty;
    }
}


// ************************************************************************* //
