/*--------------------------------*- C++ -*----------------------------------*\
| =========                 |                                                 |
| \\      /  F ield         | OpenFOAM: The Open Source CFD Toolbox           |
|  \\    /   O peration     | Version:  2312                                  |
|   \\  /    A nd           | Website:  www.openfoam.com                      |
|    \\/     M anipulation  |                                                 |
\*---------------------------------------------------------------------------*/
FoamFile
{
    version     2.0;
    format      ascii;
    arch        "LSB;label=32;scalar=64";
    class       volScalarField;
    location    "0.001";
    object      rho;
}
// * * * * * * * * * * * * * * * * * * * * * * * * * * * * * * * * * * * * * //

dimensions      [1 -3 0 0 0 0 0];

internalField   nonuniform List<scalar> 
100
(
0.280635
0.280635
0.280635
0.280635
0.280635
0.280635
0.280635
0.280635
0.280635
0.280635
0.280635
0.280635
0.280635
0.280635
0.280635
0.280635
0.280635
0.280635
0.280635
0.280635
0.280635
0.280635
0.280635
0.280635
0.280635
0.280635
0.280635
0.280635
0.280635
0.280635
0.280635
0.280632
0.280625
0.280599
0.280524
0.280324
0.279849
0.278838
0.276914
0.273624
0.268536
0.261343
0.25194
0.240424
0.227057
0.212208
0.196318
0.179874
0.163429
0.147636
0.133347
0.121716
0.113281
0.10441
0.0937926
0.0826707
0.072444
0.0639852
0.0574855
0.0525442
0.0483551
0.0439603
0.0389187
0.0339553
0.0304578
0.0288122
0.0282601
0.0281099
0.0280736
0.0280656
0.0280639
0.0280636
0.0280635
0.0280635
0.0280635
0.0280635
0.0280635
0.0280635
0.0280635
0.0280635
0.0280635
0.0280635
0.0280635
0.0280635
0.0280635
0.0280635
0.0280635
0.0280635
0.0280635
0.0280635
0.0280635
0.0280635
0.0280635
0.0280635
0.0280635
0.0280635
0.0280635
0.0280635
0.0280635
0.0280635
)
;

boundaryField
{
    sides
    {
        type            calculated;
        value           nonuniform List<scalar> 2(0.0280635 0.280635);
    }
    empty
    {
        type            empty;
    }
}


// ************************************************************************* //
