/*--------------------------------*- C++ -*----------------------------------*\
| =========                 |                                                 |
| \\      /  F ield         | OpenFOAM: The Open Source CFD Toolbox           |
|  \\    /   O peration     | Version:  2212                                  |
|   \\  /    A nd           | Website:  www.openfoam.com                      |
|    \\/     M anipulation  |                                                 |
\*---------------------------------------------------------------------------*/
FoamFile
{
    version     2.0;
    format      ascii;
    arch        "LSB;label=32;scalar=64";
    class       volScalarField;
    location    "0.001";
    object      rho;
}
// * * * * * * * * * * * * * * * * * * * * * * * * * * * * * * * * * * * * * //

dimensions      [1 -3 0 0 0 0 0];

internalField   nonuniform List<scalar> 
100
(
1.16103
1.16103
1.16103
1.16103
1.16103
1.16103
1.16103
1.16103
1.16103
1.16103
1.16103
1.16103
1.16103
1.16103
1.16103
1.16103
1.16103
1.16103
1.16103
1.16103
1.16103
1.16103
1.16103
1.16103
1.16103
1.16103
1.16103
1.16103
1.16103
1.16103
1.16103
1.16103
1.16103
1.16103
1.16103
1.16103
1.16103
1.16103
1.16103
1.16103
1.16103
1.16103
1.16103
1.16103
1.16072
1.14606
1.0572
0.909174
0.750365
0.636991
0.488962
0.427899
0.373394
0.302338
0.249542
0.158914
0.117335
0.116103
0.116103
0.116103
0.116103
0.116103
0.116103
0.116103
0.116103
0.116103
0.116103
0.116103
0.116103
0.116103
0.116103
0.116103
0.116103
0.116103
0.116103
0.116103
0.116103
0.116103
0.116103
0.116103
0.116103
0.116103
0.116103
0.116103
0.116103
0.116103
0.116103
0.116103
0.116103
0.116103
0.116103
0.116103
0.116103
0.116103
0.116103
0.116103
0.116103
0.116103
0.116103
0.116103
)
;

boundaryField
{
    sides
    {
        type            calculated;
        value           nonuniform List<scalar> 2(0.116103 1.16103);
    }
    empty
    {
        type            empty;
    }
}


// ************************************************************************* //
