/*--------------------------------*- C++ -*----------------------------------*\
| =========                 |                                                 |
| \\      /  F ield         | OpenFOAM: The Open Source CFD Toolbox           |
|  \\    /   O peration     | Version:  2212                                  |
|   \\  /    A nd           | Website:  www.openfoam.com                      |
|    \\/     M anipulation  |                                                 |
\*---------------------------------------------------------------------------*/
FoamFile
{
    version     2.0;
    format      ascii;
    arch        "LSB;label=32;scalar=64";
    class       volScalarField;
    location    "0.001";
    object      rho;
}
// * * * * * * * * * * * * * * * * * * * * * * * * * * * * * * * * * * * * * //

dimensions      [1 -3 0 0 0 0 0];

internalField   nonuniform List<scalar> 
100
(
1.16103
1.16103
1.16103
1.16103
1.16103
1.16103
1.16103
1.16103
1.16103
1.16103
1.16103
1.16103
1.16103
1.16103
1.16103
1.16103
1.16103
1.16103
1.16103
1.16103
1.16103
1.16103
1.16103
1.16103
1.16103
1.16103
1.16103
1.16103
1.16103
1.16103
1.16103
1.16103
1.16103
1.16103
1.16103
1.16103
1.16103
1.16103
1.16102
1.16097
1.16075
1.15979
1.15647
1.14704
1.1249
1.0818
1.01103
0.911085
0.787518
0.652792
0.524323
0.421131
0.357416
0.300277
0.247174
0.199634
0.159193
0.131945
0.120106
0.116869
0.116225
0.11612
0.116105
0.116103
0.116103
0.116103
0.116103
0.116103
0.116103
0.116103
0.116103
0.116103
0.116103
0.116103
0.116103
0.116103
0.116103
0.116103
0.116103
0.116103
0.116103
0.116103
0.116103
0.116103
0.116103
0.116103
0.116103
0.116103
0.116103
0.116103
0.116103
0.116103
0.116103
0.116103
0.116103
0.116103
0.116103
0.116103
0.116103
0.116103
)
;

boundaryField
{
    sides
    {
        type            calculated;
        value           nonuniform List<scalar> 2(0.116103 1.16103);
    }
    empty
    {
        type            empty;
    }
}


// ************************************************************************* //
