/*--------------------------------*- C++ -*----------------------------------*\
| =========                 |                                                 |
| \\      /  F ield         | OpenFOAM: The Open Source CFD Toolbox           |
|  \\    /   O peration     | Version:  2312                                  |
|   \\  /    A nd           | Website:  www.openfoam.com                      |
|    \\/     M anipulation  |                                                 |
\*---------------------------------------------------------------------------*/
FoamFile
{
    version     2.0;
    format      ascii;
    arch        "LSB;label=32;scalar=64";
    class       volScalarField;
    location    "0.001";
    object      rho;
}
// * * * * * * * * * * * * * * * * * * * * * * * * * * * * * * * * * * * * * //

dimensions      [1 -3 0 0 0 0 0];

internalField   nonuniform List<scalar> 
100
(
1.15862
1.15862
1.15862
1.15862
1.15862
1.15862
1.15862
1.15862
1.15862
1.15862
1.15862
1.15862
1.15862
1.15862
1.15862
1.15862
1.15862
1.15862
1.15862
1.15862
1.15862
1.15862
1.15862
1.15862
1.15862
1.15862
1.15862
1.15862
1.15862
1.15862
1.15862
1.15862
1.15862
1.15862
1.15862
1.15862
1.15862
1.15862
1.15861
1.15857
1.15834
1.15739
1.1541
1.1447
1.12262
1.0796
1.00892
0.909064
0.785621
0.651056
0.522773
0.419842
0.35666
0.300055
0.247193
0.199623
0.159038
0.1317
0.119852
0.116624
0.115984
0.115879
0.115864
0.115862
0.115862
0.115862
0.115862
0.115862
0.115862
0.115862
0.115862
0.115862
0.115862
0.115862
0.115862
0.115862
0.115862
0.115862
0.115862
0.115862
0.115862
0.115862
0.115862
0.115862
0.115862
0.115862
0.115862
0.115862
0.115862
0.115862
0.115862
0.115862
0.115862
0.115862
0.115862
0.115862
0.115862
0.115862
0.115862
0.115862
)
;

boundaryField
{
    sides
    {
        type            calculated;
        value           nonuniform List<scalar> 2(0.115862 1.15862);
    }
    empty
    {
        type            empty;
    }
}


// ************************************************************************* //
