/*--------------------------------*- C++ -*----------------------------------*\
| =========                 |                                                 |
| \\      /  F ield         | OpenFOAM: The Open Source CFD Toolbox           |
|  \\    /   O peration     | Version:  2212                                  |
|   \\  /    A nd           | Website:  www.openfoam.com                      |
|    \\/     M anipulation  |                                                 |
\*---------------------------------------------------------------------------*/
FoamFile
{
    version     2.0;
    format      ascii;
    arch        "LSB;label=32;scalar=64";
    class       volVectorField;
    location    "0.001";
    object      U;
}
// * * * * * * * * * * * * * * * * * * * * * * * * * * * * * * * * * * * * * //

dimensions      [0 1 -1 0 0 0 0];

internalField   nonuniform List<vector> 
100
(
(2.20591e-14 0 0)
(6.7759e-14 0 0)
(4.29983e-14 0 0)
(-7.72533e-15 0 0)
(-4.80778e-14 0 0)
(-2.63149e-14 0 0)
(3.19598e-14 0 0)
(2.78365e-14 0 0)
(-1.04121e-14 0 0)
(-5.57935e-14 0 0)
(-2.217e-15 0 0)
(6.62013e-14 0 0)
(5.17436e-14 0 0)
(-2.30913e-14 0 0)
(-3.96331e-14 0 0)
(-5.03141e-14 0 0)
(-2.34526e-14 0 0)
(4.29413e-15 0 0)
(2.31879e-14 0 0)
(3.98138e-15 0 0)
(7.15983e-15 0 0)
(4.00648e-14 0 0)
(4.63004e-14 0 0)
(-2.59081e-14 0 0)
(-5.721e-14 0 0)
(9.4175e-15 0 0)
(4.70085e-14 0 0)
(6.64334e-14 0 0)
(2.93045e-14 0 0)
(-2.97098e-14 0 0)
(-6.63665e-14 0 0)
(-9.76129e-14 0 0)
(-3.46394e-14 0 0)
(2.16542e-14 0 0)
(-1.47609e-14 0 0)
(7.26781e-15 0 0)
(-1.53208e-14 0 0)
(2.26392e-14 0 0)
(3.956e-14 0 0)
(4.7867e-14 0 0)
(1.13201e-14 0 0)
(1.61783e-13 0 0)
(2.08095e-09 0 0)
(0.000100187 0 0)
(0.09232 0 0)
(4.47511 0 0)
(32.1444 0 0)
(84.226 0 0)
(138.428 0 0)
(204.051 0 0)
(269.481 0 0)
(294.966 0 0)
(287.87 0 0)
(304.282 0 0)
(285.431 0 0)
(132.651 0 0)
(4.95967 0 0)
(0.00250775 0 0)
(1.43195e-08 0 0)
(2.27123e-14 0 0)
(-9.10092e-14 0 0)
(-5.25464e-14 0 0)
(-4.47489e-14 0 0)
(-1.56505e-16 0 0)
(-2.75928e-14 0 0)
(2.07372e-14 0 0)
(-6.59144e-16 0 0)
(-4.60275e-14 0 0)
(-1.08858e-14 0 0)
(7.29714e-15 0 0)
(2.95997e-14 0 0)
(-7.11959e-14 0 0)
(-4.4566e-14 0 0)
(-4.31289e-14 0 0)
(1.82824e-14 0 0)
(1.659e-14 0 0)
(2.5878e-14 0 0)
(2.95959e-14 0 0)
(9.22101e-15 0 0)
(-5.59246e-14 0 0)
(-1.772e-14 0 0)
(3.6967e-14 0 0)
(1.57448e-14 0 0)
(-2.38161e-14 0 0)
(-4.69748e-14 0 0)
(1.79525e-16 0 0)
(5.48666e-14 0 0)
(2.67152e-14 0 0)
(-4.99196e-15 0 0)
(8.32604e-15 0 0)
(2.96167e-14 0 0)
(5.6211e-14 0 0)
(2.72523e-14 0 0)
(-1.75584e-14 0 0)
(-1.3823e-14 0 0)
(6.7263e-15 0 0)
(-3.55451e-14 0 0)
(-2.6011e-14 0 0)
(-7.00065e-16 0 0)
(-3.25067e-15 0 0)
)
;

boundaryField
{
    sides
    {
        type            zeroGradient;
    }
    empty
    {
        type            empty;
    }
}


// ************************************************************************* //
