/*--------------------------------*- C++ -*----------------------------------*\
| =========                 |                                                 |
| \\      /  F ield         | OpenFOAM: The Open Source CFD Toolbox           |
|  \\    /   O peration     | Version:  2312                                  |
|   \\  /    A nd           | Website:  www.openfoam.com                      |
|    \\/     M anipulation  |                                                 |
\*---------------------------------------------------------------------------*/
FoamFile
{
    version     2.0;
    format      ascii;
    arch        "LSB;label=32;scalar=64";
    class       volVectorField;
    location    "0.001";
    object      U;
}
// * * * * * * * * * * * * * * * * * * * * * * * * * * * * * * * * * * * * * //

dimensions      [0 1 -1 0 0 0 0];

internalField   nonuniform List<vector> 
100
(
(2.85499e-13 0 0)
(3.61207e-13 0 0)
(5.53723e-13 0 0)
(5.82984e-13 0 0)
(4.52571e-13 0 0)
(4.54244e-13 0 0)
(3.62847e-13 0 0)
(2.62237e-13 0 0)
(1.8201e-13 0 0)
(1.27332e-13 0 0)
(6.15976e-14 0 0)
(1.01786e-14 0 0)
(9.00661e-14 0 0)
(2.82236e-14 0 0)
(1.43132e-14 0 0)
(6.22589e-14 0 0)
(1.32104e-13 0 0)
(6.52307e-14 0 0)
(-4.81635e-14 0 0)
(2.85735e-13 0 0)
(4.40923e-12 0 0)
(5.21246e-11 0 0)
(5.42456e-10 0 0)
(5.06872e-09 0 0)
(4.26537e-08 0 0)
(3.23875e-07 0 0)
(2.22218e-06 0 0)
(1.37925e-05 0 0)
(7.75036e-05 0 0)
(0.000394498 0 0)
(0.00181931 0 0)
(0.00760109 0 0)
(0.0287598 0 0)
(0.0984816 0 0)
(0.304944 0 0)
(0.853165 0 0)
(2.15598 0 0)
(4.92461 0 0)
(10.1935 0 0)
(19.2142 0 0)
(33.2241 0 0)
(53.1876 0 0)
(79.6356 0 0)
(112.652 0 0)
(151.967 0 0)
(197.067 0 0)
(247.265 0 0)
(301.667 0 0)
(358.962 0 0)
(416.876 0 0)
(470.817 0 0)
(511.195 0 0)
(525.392 0 0)
(527.84 0 0)
(528.715 0 0)
(528.871 0 0)
(528.012 0 0)
(525.071 0 0)
(517.538 0 0)
(499.949 0 0)
(462.925 0 0)
(394.351 0 0)
(288.727 0 0)
(165.205 0 0)
(68.382 0 0)
(21.1399 0 0)
(5.46782 0 0)
(1.27838 0 0)
(0.277067 0 0)
(0.0558589 0 0)
(0.0104513 0 0)
(0.0018088 0 0)
(0.000288639 0 0)
(4.23416e-05 0 0)
(5.69338e-06 0 0)
(6.99695e-07 0 0)
(7.83593e-08 0 0)
(7.97207e-09 0 0)
(7.34404e-10 0 0)
(6.10818e-11 0 0)
(4.64634e-12 0 0)
(3.54652e-13 0 0)
(-4.20289e-15 0 0)
(-5.64547e-14 0 0)
(-1.34533e-14 0 0)
(5.80527e-14 0 0)
(-4.14027e-14 0 0)
(-2.56372e-14 0 0)
(-4.10344e-14 0 0)
(-2.27935e-14 0 0)
(5.05713e-14 0 0)
(1.25302e-13 0 0)
(1.05778e-13 0 0)
(3.54343e-14 0 0)
(-3.25535e-14 0 0)
(-7.68291e-14 0 0)
(4.24945e-14 0 0)
(5.1975e-14 0 0)
(-4.07252e-14 0 0)
(-1.23312e-13 0 0)
)
;

boundaryField
{
    sides
    {
        type            zeroGradient;
    }
    empty
    {
        type            empty;
    }
}


// ************************************************************************* //
