/*--------------------------------*- C++ -*----------------------------------*\
| =========                 |                                                 |
| \\      /  F ield         | OpenFOAM: The Open Source CFD Toolbox           |
|  \\    /   O peration     | Version:  2312                                  |
|   \\  /    A nd           | Website:  www.openfoam.com                      |
|    \\/     M anipulation  |                                                 |
\*---------------------------------------------------------------------------*/
FoamFile
{
    version     2.0;
    format      ascii;
    arch        "LSB;label=32;scalar=64";
    class       volVectorField;
    location    "0.001";
    object      U;
}
// * * * * * * * * * * * * * * * * * * * * * * * * * * * * * * * * * * * * * //

dimensions      [0 1 -1 0 0 0 0];

internalField   nonuniform List<vector> 
100
(
(1.09831e-13 0 0)
(7.50242e-14 0 0)
(3.68958e-14 0 0)
(-4.21626e-15 0 0)
(1.41692e-15 0 0)
(4.18137e-14 0 0)
(1.14729e-14 0 0)
(-4.81039e-14 0 0)
(-2.73238e-14 0 0)
(-7.66657e-14 0 0)
(-9.90928e-14 0 0)
(-8.65625e-14 0 0)
(-8.26458e-14 0 0)
(-4.06088e-14 0 0)
(3.03701e-14 0 0)
(1.50591e-14 0 0)
(-4.32874e-14 0 0)
(-4.74717e-14 0 0)
(-9.55536e-15 0 0)
(6.93675e-14 0 0)
(9.44982e-14 0 0)
(1.232e-14 0 0)
(2.25792e-14 0 0)
(4.99928e-14 0 0)
(7.26765e-14 0 0)
(1.7538e-14 0 0)
(-6.63872e-14 0 0)
(-6.01718e-14 0 0)
(-5.14109e-14 0 0)
(4.4594e-14 0 0)
(2.40049e-12 0 0)
(5.99115e-11 0 0)
(1.23153e-09 0 0)
(2.13066e-08 0 0)
(3.10713e-07 0 0)
(3.82262e-06 0 0)
(3.96955e-05 0 0)
(0.000347945 0 0)
(0.00257275 0 0)
(0.0160249 0 0)
(0.0838917 0 0)
(0.36804 0 0)
(1.34953 0 0)
(4.13563 0 0)
(10.6515 0 0)
(23.3731 0 0)
(44.618 0 0)
(75.9122 0 0)
(117.752 0 0)
(169.258 0 0)
(226.033 0 0)
(271.628 0 0)
(279.311 0 0)
(270.142 0 0)
(244.808 0 0)
(194.209 0 0)
(119.142 0 0)
(48.1295 0 0)
(12.2808 0 0)
(2.3136 0 0)
(0.365993 0 0)
(0.0503698 0 0)
(0.00604027 0 0)
(0.000627755 0 0)
(5.61962e-05 0 0)
(4.30936e-06 0 0)
(2.81797e-07 0 0)
(1.56569e-08 0 0)
(7.36989e-10 0 0)
(2.93871e-11 0 0)
(1.04021e-12 0 0)
(1.43141e-13 0 0)
(9.85904e-14 0 0)
(5.0824e-14 0 0)
(-4.91193e-14 0 0)
(-1.50239e-14 0 0)
(3.20221e-14 0 0)
(-4.26118e-15 0 0)
(-1.9917e-14 0 0)
(-4.97469e-14 0 0)
(-2.49987e-15 0 0)
(3.67054e-14 0 0)
(2.55285e-14 0 0)
(-9.9871e-15 0 0)
(-4.97469e-14 0 0)
(7.43002e-15 0 0)
(6.6495e-14 0 0)
(2.15231e-14 0 0)
(2.23287e-14 0 0)
(7.74941e-14 0 0)
(4.97193e-14 0 0)
(1.3497e-14 0 0)
(-1.52236e-14 0 0)
(-4.13096e-14 0 0)
(-9.36425e-15 0 0)
(4.30071e-14 0 0)
(2.28904e-14 0 0)
(-1.52236e-14 0 0)
(-3.22825e-14 0 0)
(-2.87559e-15 0 0)
)
;

boundaryField
{
    sides
    {
        type            zeroGradient;
    }
    empty
    {
        type            empty;
    }
}


// ************************************************************************* //
