/*--------------------------------*- C++ -*----------------------------------*\
| =========                 |                                                 |
| \\      /  F ield         | OpenFOAM: The Open Source CFD Toolbox           |
|  \\    /   O peration     | Version:  2212                                  |
|   \\  /    A nd           | Website:  www.openfoam.com                      |
|    \\/     M anipulation  |                                                 |
\*---------------------------------------------------------------------------*/
FoamFile
{
    version     2.0;
    format      ascii;
    arch        "LSB;label=32;scalar=64";
    class       volVectorField;
    location    "0.001";
    object      U;
}
// * * * * * * * * * * * * * * * * * * * * * * * * * * * * * * * * * * * * * //

dimensions      [0 1 -1 0 0 0 0];

internalField   nonuniform List<vector> 
100
(
(2.98848e-14 0 0)
(-7.26169e-15 0 0)
(-6.16762e-14 0 0)
(-3.58595e-15 0 0)
(1.58771e-14 0 0)
(2.49369e-14 0 0)
(-7.26169e-15 0 0)
(-2.99664e-14 0 0)
(4.3415e-15 0 0)
(3.14929e-14 0 0)
(1.56668e-14 0 0)
(3.48299e-14 0 0)
(1.90525e-14 0 0)
(6.36637e-15 0 0)
(-4.15545e-15 0 0)
(-1.26573e-14 0 0)
(1.51762e-14 0 0)
(3.19763e-15 0 0)
(-9.48853e-15 0 0)
(3.772e-15 0 0)
(-1.26573e-14 0 0)
(-6.78723e-16 0 0)
(-4.72982e-15 0 0)
(-1.7416e-14 0 0)
(-6.30076e-15 0 0)
(-2.52211e-14 0 0)
(-3.20439e-14 0 0)
(-5.98494e-15 0 0)
(2.13848e-14 0 0)
(9.70959e-14 0 0)
(2.5206e-12 0 0)
(6.14217e-11 0 0)
(1.25985e-09 0 0)
(2.17595e-08 0 0)
(3.16781e-07 0 0)
(3.89066e-06 0 0)
(4.03332e-05 0 0)
(0.000352929 0 0)
(0.00260514 0 0)
(0.0161988 0 0)
(0.0846569 0 0)
(0.370768 0 0)
(1.35729 0 0)
(4.15288 0 0)
(10.6808 0 0)
(23.4084 0 0)
(44.64 0 0)
(75.8875 0 0)
(117.634 0 0)
(168.987 0 0)
(225.51 0 0)
(270.732 0 0)
(278.26 0 0)
(269.146 0 0)
(243.948 0 0)
(193.608 0 0)
(118.893 0 0)
(48.1321 0 0)
(12.3171 0 0)
(2.32652 0 0)
(0.368875 0 0)
(0.0508742 0 0)
(0.00611323 0 0)
(0.000636602 0 0)
(5.70992e-05 0 0)
(4.38698e-06 0 0)
(2.87412e-07 0 0)
(1.59984e-08 0 0)
(7.54463e-10 0 0)
(3.01445e-11 0 0)
(1.1353e-12 0 0)
(1.42087e-13 0 0)
(1.23747e-13 0 0)
(1.20982e-13 0 0)
(5.45665e-14 0 0)
(4.17191e-14 0 0)
(6.37403e-14 0 0)
(3.69678e-14 0 0)
(6.02594e-14 0 0)
(3.79524e-14 0 0)
(5.05688e-15 0 0)
(-3.21348e-14 0 0)
(-2.15873e-14 0 0)
(3.05314e-14 0 0)
(1.81337e-14 0 0)
(-7.42176e-14 0 0)
(-1.11409e-13 0 0)
(-1.00862e-13 0 0)
(-8.58013e-14 0 0)
(-1.1793e-13 0 0)
(-1.35312e-13 0 0)
(-1.12809e-13 0 0)
(-9.15912e-14 0 0)
(-4.79732e-14 0 0)
(-8.1744e-14 0 0)
(-3.33226e-14 0 0)
(2.07969e-14 0 0)
(-6.39681e-15 0 0)
(-6.37948e-14 0 0)
(-8.92485e-14 0 0)
)
;

boundaryField
{
    sides
    {
        type            zeroGradient;
    }
    empty
    {
        type            empty;
    }
}


// ************************************************************************* //
