/*--------------------------------*- C++ -*----------------------------------*\
| =========                 |                                                 |
| \\      /  F ield         | OpenFOAM: The Open Source CFD Toolbox           |
|  \\    /   O peration     | Version:  2312                                  |
|   \\  /    A nd           | Website:  www.openfoam.com                      |
|    \\/     M anipulation  |                                                 |
\*---------------------------------------------------------------------------*/
FoamFile
{
    version     2.0;
    format      ascii;
    arch        "LSB;label=32;scalar=64";
    class       volScalarField;
    location    "0.042";
    object      p;
}
// * * * * * * * * * * * * * * * * * * * * * * * * * * * * * * * * * * * * * //

dimensions      [1 -1 -2 0 0 0 0];

internalField   nonuniform List<scalar> 
100
(
36434.8
36463.9
36021.5
35965
35605.4
35474.9
35186.6
35003.7
34758.1
34549.9
34322.9
34106.2
33885.5
33667.1
33448.2
33229.7
33011.4
32793
32575.2
32356.3
32139.7
31919.4
31706.1
31481.2
31276.5
31040.3
30854.1
30594.6
30442.6
30143.2
30043.5
29689.2
29653.4
29241.8
29263.5
28815.5
28862.5
28424.6
28442.8
28078.8
28003.8
27782.6
27548.6
27539.8
27081.5
27354.2
26610
27223.6
26153.2
27131.3
25747.7
27044.1
25440.9
26923.8
25271.7
26748
25248.9
26525.3
25342.2
26294.1
25493.5
26102.7
25644.8
25982.2
25763
25933.8
25845.5
25936.9
25906.8
25967.8
25962.3
26013.2
26022.6
26074.2
26101.9
26172
26244
26389
26608.8
27015.4
27670.2
28686.6
30023.3
31570.9
33072
34365.9
35327.7
36008
36433.7
36717.6
36878.4
36996.9
37059.9
37121.4
37153.5
37196.9
37220.8
37259.1
37281.4
37314
)
;

boundaryField
{
    sides
    {
        type            zeroGradient;
    }
    empty
    {
        type            empty;
    }
}


// ************************************************************************* //
