/*--------------------------------*- C++ -*----------------------------------*\
| =========                 |                                                 |
| \\      /  F ield         | OpenFOAM: The Open Source CFD Toolbox           |
|  \\    /   O peration     | Version:  2312                                  |
|   \\  /    A nd           | Website:  www.openfoam.com                      |
|    \\/     M anipulation  |                                                 |
\*---------------------------------------------------------------------------*/
FoamFile
{
    version     2.0;
    format      ascii;
    arch        "LSB;label=32;scalar=64";
    class       volScalarField;
    location    "0.042";
    object      rho;
}
// * * * * * * * * * * * * * * * * * * * * * * * * * * * * * * * * * * * * * //

dimensions      [1 -3 0 0 0 0 0];

internalField   nonuniform List<scalar> 
100
(
0.532372
0.529163
0.525751
0.522631
0.519422
0.516598
0.513742
0.511222
0.508747
0.506504
0.504347
0.502331
0.500397
0.498547
0.496755
0.495011
0.493302
0.491621
0.48996
0.488316
0.486682
0.485064
0.483447
0.481857
0.480253
0.478704
0.47711
0.475628
0.474042
0.472649
0.471079
0.469781
0.46825
0.467016
0.465567
0.464326
0.46301
0.461681
0.460526
0.459049
0.458058
0.456404
0.455571
0.453731
0.453072
0.451054
0.45059
0.448456
0.448161
0.44608
0.44583
0.444076
0.443673
0.442538
0.441811
0.441468
0.440389
0.44078
0.43952
0.440368
0.439212
0.440157
0.439351
0.440135
0.439758
0.440309
0.440274
0.440664
0.440825
0.441157
0.441414
0.441762
0.442102
0.442539
0.443054
0.443778
0.444836
0.446571
0.449533
0.454662
0.463091
0.475615
0.491774
0.509591
0.526434
0.540314
0.550547
0.557487
0.561945
0.564725
0.566454
0.567555
0.56829
0.568819
0.569234
0.569593
0.569919
0.570229
0.570531
0.570745
)
;

boundaryField
{
    sides
    {
        type            zeroGradient;
    }
    empty
    {
        type            empty;
    }
}


// ************************************************************************* //
