/*--------------------------------*- C++ -*----------------------------------*\
| =========                 |                                                 |
| \\      /  F ield         | OpenFOAM: The Open Source CFD Toolbox           |
|  \\    /   O peration     | Version:  2312                                  |
|   \\  /    A nd           | Website:  www.openfoam.com                      |
|    \\/     M anipulation  |                                                 |
\*---------------------------------------------------------------------------*/
FoamFile
{
    version     2.0;
    format      ascii;
    arch        "LSB;label=32;scalar=64";
    class       volScalarField;
    location    "0.042";
    object      thermo:e;
}
// * * * * * * * * * * * * * * * * * * * * * * * * * * * * * * * * * * * * * //

dimensions      [0 2 -2 0 0 0 0];

internalField   nonuniform List<scalar> 
100
(
171086
172261
171275
172028
171360
171665
171216
171166
170792
170520
170125
169729
169283
168815
168323
167813
167288
166749
166203
165642
165086
164501
163949
163323
162803
162096
161662
160802
160538
159428
159430
157985
158311
156526
157129
155137
155832
153910
154394
152909
152830
152173
151167
151731
149423
151603
147631
151754
145883
152045
144372
152240
143345
152089
142992
151463
143324
150436
144138
149264
145101
148248
145915
147572
146452
147239
146749
147138
146913
147148
147031
147204
147143
147290
147275
147429
147483
147722
147971
148538
149368
150778
152618
154874
157047
158999
160411
161464
162077
162536
162750
162956
163023
163141
163163
163251
163262
163341
163353
163434
)
;

boundaryField
{
    sides
    {
        type            zeroGradient;
    }
    empty
    {
        type            empty;
    }
}


// ************************************************************************* //
