/*--------------------------------*- C++ -*----------------------------------*\
| =========                 |                                                 |
| \\      /  F ield         | OpenFOAM: The Open Source CFD Toolbox           |
|  \\    /   O peration     | Version:  2312                                  |
|   \\  /    A nd           | Website:  www.openfoam.com                      |
|    \\/     M anipulation  |                                                 |
\*---------------------------------------------------------------------------*/
FoamFile
{
    version     2.0;
    format      ascii;
    arch        "LSB;label=32;scalar=64";
    class       volVectorField;
    location    "0.042";
    object      U;
}
// * * * * * * * * * * * * * * * * * * * * * * * * * * * * * * * * * * * * * //

dimensions      [0 1 -1 0 0 0 0];

internalField   nonuniform List<vector> 
100
(
(155.085 0 0)
(157.198 0 0)
(159.601 0 0)
(161.776 0 0)
(164.206 0 0)
(166.413 0 0)
(168.81 0 0)
(171.062 0 0)
(173.409 0 0)
(175.685 0 0)
(177.991 0 0)
(180.267 0 0)
(182.543 0 0)
(184.803 0 0)
(187.055 0 0)
(189.294 0 0)
(191.523 0 0)
(193.739 0 0)
(195.945 0 0)
(198.135 0 0)
(200.318 0 0)
(202.481 0 0)
(204.643 0 0)
(206.771 0 0)
(208.919 0 0)
(211.003 0 0)
(213.145 0 0)
(215.172 0 0)
(217.315 0 0)
(219.278 0 0)
(221.418 0 0)
(223.325 0 0)
(225.434 0 0)
(227.314 0 0)
(229.343 0 0)
(231.239 0 0)
(233.133 0 0)
(235.08 0 0)
(236.799 0 0)
(238.808 0 0)
(240.334 0 0)
(242.399 0 0)
(243.718 0 0)
(245.829 0 0)
(246.928 0 0)
(249.067 0 0)
(249.942 0 0)
(252.054 0 0)
(252.757 0 0)
(254.713 0 0)
(255.365 0 0)
(256.98 0 0)
(257.737 0 0)
(258.838 0 0)
(259.813 0 0)
(260.33 0 0)
(261.518 0 0)
(261.541 0 0)
(262.807 0 0)
(262.557 0 0)
(263.704 0 0)
(263.427 0 0)
(264.308 0 0)
(264.161 0 0)
(264.75 0 0)
(264.761 0 0)
(265.133 0 0)
(265.247 0 0)
(265.502 0 0)
(265.652 0 0)
(265.851 0 0)
(265.992 0 0)
(266.139 0 0)
(266.221 0 0)
(266.247 0 0)
(266.125 0 0)
(265.76 0 0)
(264.91 0 0)
(263.196 0 0)
(260.022 0 0)
(254.766 0 0)
(247.148 0 0)
(237.705 0 0)
(227.751 0 0)
(218.75 0 0)
(211.65 0 0)
(206.656 0 0)
(203.468 0 0)
(201.604 0 0)
(200.621 0 0)
(200.185 0 0)
(200.073 0 0)
(200.152 0 0)
(200.335 0 0)
(200.579 0 0)
(200.852 0 0)
(201.143 0 0)
(201.441 0 0)
(201.747 0 0)
(201.992 0 0)
)
;

boundaryField
{
    sides
    {
        type            mywaveTransmissive;
        gamma           1.4;
        value           nonuniform List<vector> 2((202.104 0 0) (154.798 0 0));
    }
    empty
    {
        type            empty;
    }
}


// ************************************************************************* //
