0.000749886 	2.33303e+06 	0.000919081 	10.8368 	-6.44169e-09 	7.01897e-09
0.0016069 	2.33311e+06 	0.000919314 	22.0515 	-7.02607e-09 	7.5874e-09
0.0025654 	2.33315e+06 	0.000919739 	34.5863 	-8.11562e-09 	8.68459e-09
0.00354676 	2.33317e+06 	0.000920409 	47.4629 	-9.04915e-09 	9.61451e-09
0.0045362 	2.33317e+06 	0.000921384 	60.4845 	-8.27708e-09 	8.80696e-09
0.00552938 	2.33317e+06 	0.000922723 	73.5915 	-8.93203e-09 	9.46838e-09
0.0065246 	2.33316e+06 	0.000924489 	86.801 	-9.90189e-09 	1.0433e-08
0.00752105 	2.33316e+06 	0.000926745 	100.094 	-1.0949e-08 	1.14747e-08
0.00851829 	2.33315e+06 	0.000929556 	113.47 	-1.07739e-08 	1.12976e-08
0.00951608 	2.33315e+06 	0.000932987 	126.923 	-9.67368e-09 	1.0201e-08
0.0105143 	2.33315e+06 	0.000937111 	140.455 	-8.52462e-09 	9.07434e-09
0.0115127 	2.33314e+06 	0.000941998 	154.072 	-7.84006e-09 	8.29506e-09
0.0125114 	2.33314e+06 	0.000947727 	167.777 	-7.17153e-09 	7.56361e-09
0.0135103 	2.33315e+06 	0.00095438 	181.58 	-6.20587e-09 	6.54431e-09
0.0145093 	2.33315e+06 	0.000962046 	195.488 	-4.91482e-09 	5.206e-09
0.0155084 	2.33315e+06 	0.000970818 	209.546 	-3.33709e-09 	3.59007e-09
0.0165076 	2.33316e+06 	0.000980803 	223.738 	-1.59119e-09 	1.78789e-09
0.0175069 	2.33317e+06 	0.000992113 	238.081 	-7.89579e-10 	9.32435e-10
0.0185062 	2.33318e+06 	0.00100487 	252.578 	-2.74538e-11 	1.2519e-10
0.0195056 	2.33319e+06 	0.00101923 	267.246 	-6.40546e-11 	1.19064e-10
0.020505 	2.3332e+06 	0.00103533 	282.064 	-1.02081e-10 	1.82383e-10
0.0215045 	2.33322e+06 	0.00105336 	297.077 	-5.08317e-11 	2.00025e-10
0.022504 	2.33324e+06 	0.00107352 	312.274 	-2.2027e-10 	4.49239e-10
0.0235035 	2.33326e+06 	0.00109603 	327.691 	-6.80965e-10 	8.75538e-10
0.0245031 	2.33329e+06 	0.00112116 	343.322 	-8.88471e-10 	1.01269e-09
0.0255027 	2.33331e+06 	0.0011492 	359.207 	-8.09342e-10 	8.53709e-10
0.0265023 	2.33334e+06 	0.00118049 	375.357 	-8.01391e-10 	9.67822e-10
0.0275019 	2.33338e+06 	0.00121545 	391.805 	-1.16901e-09 	1.30708e-09
0.0285015 	2.33341e+06 	0.00125454 	408.575 	-8.19688e-10 	9.31253e-10
0.0295012 	2.33345e+06 	0.0012983 	425.698 	-6.53971e-10 	7.17681e-10
0.0305008 	2.33349e+06 	0.0013474 	443.2 	-6.81142e-10 	6.83578e-10
0.0315005 	2.33353e+06 	0.0014026 	461.114 	-9.52936e-10 	9.54396e-10
0.0325002 	2.33357e+06 	0.00146484 	479.506 	-7.80894e-10 	7.80919e-10
0.0334999 	2.33361e+06 	0.00153523 	498.244 	-7.38908e-10 	7.38904e-10
0.0344996 	2.33377e+06 	0.00161519 	517.161 	-7.27981e-10 	7.27976e-10
0.0354993 	2.33386e+06 	0.00170631 	532.8 	-7.14216e-10 	7.14216e-10
0.036499 	2.33366e+06 	0.0018088 	539.399 	-6.66439e-10 	6.66439e-10
0.0374987 	2.3339e+06 	0.00192211 	544.186 	-6.11601e-10 	6.11601e-10
0.0384985 	2.33394e+06 	0.00204566 	554.406 	-6.22619e-10 	6.22619e-10
0.0394982 	2.33393e+06 	0.00218003 	567.493 	-6.83377e-10 	6.83377e-10
0.040498 	2.33398e+06 	0.00232622 	581.135 	-7.80047e-10 	7.80047e-10
0.0414977 	2.33401e+06 	0.00248531 	595.132 	-7.25812e-10 	7.25812e-10
0.0424975 	2.33407e+06 	0.00265857 	609.071 	-5.55538e-10 	5.55538e-10
0.0434972 	2.33413e+06 	0.00284734 	623.088 	-4.60817e-10 	4.60817e-10
0.044497 	2.33419e+06 	0.00305315 	637.046 	-3.19708e-10 	3.19708e-10
0.0454967 	2.33425e+06 	0.00327767 	650.995 	-3.87943e-10 	3.87943e-10
0.0464965 	2.33433e+06 	0.00352275 	664.862 	-2.85954e-10 	2.85954e-10
0.0474963 	2.33441e+06 	0.00379045 	678.661 	-3.76319e-10 	3.76319e-10
0.0484961 	2.3345e+06 	0.00408301 	692.35 	-2.4663e-10 	2.4663e-10
0.0494958 	2.33461e+06 	0.00440293 	705.921 	-2.30985e-10 	2.30985e-10
0.0504956 	2.33473e+06 	0.00475296 	719.356 	-2.34632e-10 	2.34632e-10
0.0514954 	2.33486e+06 	0.00513612 	732.649 	-1.82189e-10 	1.82189e-10
0.0524952 	2.335e+06 	0.00555575 	745.801 	-1.47191e-10 	1.47191e-10
0.053495 	2.33516e+06 	0.00601552 	758.839 	-1.07284e-10 	1.07284e-10
0.0544948 	2.33533e+06 	0.00651948 	771.797 	-8.13292e-11 	8.13292e-11
0.0554946 	2.33551e+06 	0.0070721 	784.716 	-6.00494e-11 	6.00494e-11
0.0564944 	2.33571e+06 	0.00767828 	797.646 	-7.1497e-11 	7.1497e-11
0.0574942 	2.33593e+06 	0.00834342 	810.642 	-3.66917e-11 	3.66917e-11
0.058494 	2.3362e+06 	0.00907348 	823.717 	-5.29709e-11 	5.29709e-11
0.0594938 	2.33649e+06 	0.00987495 	836.981 	6.51571e-12 	-6.51571e-12
0.0604936 	2.33684e+06 	0.0107551 	850.356 	-1.77125e-12 	1.77125e-12
0.0614934 	2.33722e+06 	0.0117216 	864.027 	1.56166e-12 	-1.56166e-12
0.0624932 	2.33767e+06 	0.0127832 	877.81 	1.56459e-12 	-1.56459e-12
0.063493 	2.33814e+06 	0.013949 	891.94 	1.20462e-12 	-1.20462e-12
0.0644928 	2.33868e+06 	0.0152297 	906.16 	0 	2.78435e-32
0.0654926 	2.33922e+06 	0.0166359 	920.669 	7.41361e-12 	-7.41361e-12
0.0664924 	2.33982e+06 	0.0181802 	935.173 	-6.80382e-12 	6.80382e-12
0.0674922 	2.34044e+06 	0.0198756 	949.761 	1.38019e-11 	-1.38019e-11
0.068492 	2.34115e+06 	0.0217371 	964.124 	6.60933e-12 	-6.60933e-12
0.0694918 	2.34196e+06 	0.0237805 	978.208 	5.5905e-12 	-5.5905e-12
0.0704916 	2.34287e+06 	0.0260229 	991.991 	5.02051e-12 	-5.02051e-12
0.0714915 	2.34389e+06 	0.0284833 	1005.53 	7.7952e-13 	-7.7952e-13
0.0724913 	2.34502e+06 	0.031182 	1018.96 	4.1068e-13 	-4.1068e-13
0.0734911 	2.34627e+06 	0.0341412 	1032.45 	1.01746e-12 	-1.01746e-12
0.0744909 	2.34769e+06 	0.0373855 	1046.06 	-9.2475e-13 	9.2475e-13
0.0754907 	2.34927e+06 	0.0409407 	1060.02 	4.70234e-12 	-4.70234e-12
0.0764906 	2.35102e+06 	0.0448352 	1074.36 	5.55869e-12 	-5.55869e-12
0.0774904 	2.35289e+06 	0.0490991 	1089.12 	2.11785e-12 	-2.11785e-12
0.0784902 	2.35488e+06 	0.0537648 	1104.11 	2.53045e-12 	-2.53045e-12
0.07949 	2.35718e+06 	0.0588705 	1118.86 	4.09742e-13 	-4.06059e-13
0.0804898 	2.35979e+06 	0.0644546 	1133.12 	2.04501e-12 	-2.21052e-12
0.0814897 	2.3627e+06 	0.0705589 	1147.04 	-1.41741e-12 	1.44685e-12
0.0824895 	2.36598e+06 	0.0772288 	1160.84 	2.52175e-12 	-2.5064e-12
0.0834893 	2.36961e+06 	0.0845116 	1174.83 	1.17836e-12 	-1.15749e-12
0.0844891 	2.37354e+06 	0.0924567 	1189.29 	2.86978e-12 	-2.87362e-12
0.085489 	2.37764e+06 	0.101115 	1204.42 	2.0457e-13 	-1.67074e-13
0.0864888 	2.38222e+06 	0.11055 	1219.73 	1.84491e-13 	-2.04163e-13
0.0874886 	2.38759e+06 	0.120834 	1234.46 	-5.92147e-13 	6.54881e-13
0.0884884 	2.39368e+06 	0.132033 	1248.83 	-5.73149e-13 	7.53414e-13
0.0894883 	2.40049e+06 	0.144219 	1263.13 	1.0775e-13 	-1.27715e-13
0.0904881 	2.40766e+06 	0.157456 	1278.01 	-1.95476e-13 	3.31524e-13
0.0914879 	2.41507e+06 	0.171814 	1293.73 	-4.04964e-13 	4.65739e-13
0.0924877 	2.42361e+06 	0.187423 	1309.46 	3.84512e-13 	-3.8454e-13
0.0934876 	2.43363e+06 	0.204398 	1324.32 	-7.13908e-13 	7.03474e-13
0.0944874 	2.44489e+06 	0.222839 	1339.2 	-5.88413e-13 	6.01499e-13
0.0954872 	2.45661e+06 	0.24282 	1354.88 	-3.74934e-13 	3.74939e-13
0.0964871 	2.46864e+06 	0.264446 	1371.64 	-7.11714e-13 	7.11664e-13
0.0974869 	2.48327e+06 	0.288005 	1387.52 	-3.77453e-13 	3.77424e-13
0.0984867 	2.50003e+06 	0.313633 	1402.83 	-5.55404e-13 	5.54732e-13
0.0994866 	2.51742e+06 	0.341388 	1419.22 	-1.85918e-13 	1.87545e-13
0.100486 	2.53542e+06 	0.371448 	1437.04 	-2.14934e-13 	2.15254e-13
0.101486 	2.55734e+06 	0.404285 	1453.26 	-2.24223e-13 	2.27796e-13
0.102486 	2.58214e+06 	0.440076 	1469.72 	-4.7943e-13 	4.74741e-13
0.103486 	2.60614e+06 	0.478703 	1488.28 	-2.06709e-13 	2.04764e-13
0.104486 	2.63486e+06 	0.52101 	1505.88 	-4.17834e-13 	4.13352e-13
0.105486 	2.66934e+06 	0.567355 	1523.23 	-7.84965e-14 	7.49737e-14
0.106485 	2.70146e+06 	0.617765 	1544.93 	-3.03394e-13 	3.0059e-13
0.107485 	2.74919e+06 	0.673799 	1560.9 	-1.01745e-13 	9.83683e-14
0.108485 	2.78465e+06 	0.734064 	1586.32 	-1.03293e-13 	1.00484e-13
0.109485 	2.8466e+06 	0.802073 	1600.66 	2.33332e-14 	-2.60641e-14
0.110485 	2.8874e+06 	0.874148 	1629.04 	-6.64564e-14 	6.53957e-14
0.111485 	2.96402e+06 	0.957105 	1642.79 	1.35698e-13 	-1.36536e-13
0.112484 	3.01348e+06 	1.04455 	1673.89 	1.3888e-13 	-1.39772e-13
0.113484 	3.10705e+06 	1.1471 	1687.61 	1.53015e-13 	-1.53324e-13
0.114484 	3.16818e+06 	1.2548 	1719.96 	1.73742e-13 	-1.75346e-13
0.115484 	3.27771e+06 	1.38185 	1735.08 	2.49477e-13 	-2.48807e-13
0.116484 	3.35659e+06 	1.51666 	1766.12 	3.14336e-13 	-3.14491e-13
0.117484 	3.47904e+06 	1.67384 	1784.71 	1.89359e-13 	-1.87933e-13
0.118483 	3.58665e+06 	1.84471 	1812.99 	2.40697e-13 	-2.41224e-13
0.119483 	3.72909e+06 	2.04176 	1837.25 	1.44346e-13 	-1.43656e-13
0.120483 	3.88165e+06 	2.26421 	1865.39 	4.96918e-14 	-4.97156e-14
0.121483 	4.0603e+06 	2.5198 	1893.97 	1.26397e-13 	-1.26434e-13
0.122483 	4.26367e+06 	2.81309 	1924.21 	1.04177e-13 	-1.04203e-13
0.123483 	4.50323e+06 	3.15359 	1956.98 	8.59178e-14 	-8.59445e-14
0.124482 	4.80495e+06 	3.56142 	1996.55 	6.86804e-14 	-6.87043e-14
0.125482 	5.22743e+06 	4.0888 	2051.9 	4.25612e-14 	-4.25789e-14
0.126482 	5.57859e+06 	4.62368 	2079.68 	2.3076e-14 	-2.30994e-14
0.127482 	5.47701e+06 	4.879 	2056.92 	1.72166e-14 	-1.72359e-14
0.128482 	4.72031e+06 	4.73082 	1894.79 	1.19907e-14 	-1.20121e-14
0.129482 	2.37231e+06 	3.22771 	1304.94 	6.17425e-15 	-6.17425e-15
0.130481 	292361 	1.44531 	250.661 	4.94955e-16 	-4.94955e-16
0.131481 	103835 	1.1765 	9.0954 	0 	0
0.132481 	100058 	1.16139 	0.152213 	-1.43392e-15 	1.43392e-15
0.133481 	99998.5 	1.16101 	0.00240846 	-1.04222e-14 	1.04222e-14
0.134481 	99997.6 	1.161 	3.80083e-05 	-2.30949e-14 	2.30949e-14
0.135481 	99997.6 	1.161 	5.98218e-07 	-2.05374e-14 	2.05374e-14
0.13648 	99997.6 	1.161 	9.37976e-09 	4.89082e-15 	-4.89082e-15
0.13748 	99997.6 	1.161 	1.49498e-10 	4.14969e-15 	-4.14969e-15
0.13848 	99997.6 	1.161 	3.51307e-12 	0 	0
0.13948 	99997.6 	1.161 	-5.51641e-12 	0 	0
0.14048 	99997.6 	1.161 	-1.21744e-11 	0 	0
0.14148 	99997.6 	1.161 	1.05607e-11 	-2.91376e-15 	2.91376e-15
0.14248 	99997.6 	1.161 	6.58582e-12 	-1.19762e-14 	1.19762e-14
0.143479 	99997.6 	1.161 	-5.87155e-12 	-1.60796e-16 	1.60796e-16
0.144479 	99997.6 	1.161 	-2.26937e-12 	0 	0
0.145479 	99997.6 	1.161 	3.23651e-12 	0 	0
0.146479 	99997.6 	1.161 	1.39423e-11 	0 	0
0.147479 	99997.6 	1.161 	5.39341e-12 	0 	0
0.148479 	99997.6 	1.161 	-2.39366e-12 	0 	0
0.149478 	99997.6 	1.161 	-9.24607e-12 	7.81389e-15 	-7.81389e-15
0.150478 	99997.6 	1.161 	-1.67141e-11 	0 	0
0.151478 	99997.6 	1.161 	5.758e-12 	-4.92392e-15 	4.92392e-15
0.152478 	99997.6 	1.161 	1.75279e-11 	0 	0
0.153478 	99997.6 	1.161 	1.01956e-11 	5.68713e-15 	-5.68713e-15
0.154478 	99997.6 	1.161 	4.55995e-12 	-4.41269e-15 	4.41269e-15
0.155477 	99997.6 	1.161 	9.01132e-12 	0 	0
0.156477 	99997.6 	1.161 	-7.9082e-12 	-1.40034e-16 	1.46088e-16
0.157477 	99997.6 	1.161 	-1.50328e-11 	-9.44686e-15 	9.45834e-15
0.158477 	99997.6 	1.161 	-4.40788e-12 	-9.58235e-15 	9.5999e-15
0.159477 	99997.6 	1.161 	-8.93312e-12 	-1.86577e-14 	1.86806e-14
0.160477 	99997.6 	1.161 	-4.35012e-12 	-1.88018e-14 	1.88169e-14
0.161476 	99997.6 	1.161 	-7.59278e-12 	-1.02251e-14 	1.02322e-14
0.162476 	99997.6 	1.161 	-7.13921e-12 	-1.04441e-14 	1.04475e-14
0.163476 	99997.6 	1.161 	4.62423e-12 	-2.80931e-14 	2.80948e-14
0.164476 	99997.6 	1.161 	4.16163e-12 	-6.02488e-15 	6.02488e-15
0.165476 	99997.6 	1.161 	-4.0628e-12 	0 	0
0.166476 	99997.6 	1.161 	8.71143e-12 	0 	0
0.167476 	99997.6 	1.161 	1.05663e-11 	6.14929e-15 	-6.14929e-15
0.168475 	99997.6 	1.161 	-5.81932e-12 	0 	0
0.169475 	99997.6 	1.161 	1.93851e-12 	0 	0
0.170475 	99997.6 	1.161 	7.86473e-12 	0 	0
0.171475 	99997.6 	1.161 	-4.74387e-12 	-7.69568e-15 	7.68065e-15
0.172475 	99997.6 	1.161 	8.3936e-14 	-1.38806e-15 	1.35566e-15
0.173475 	99997.6 	1.161 	-1.24742e-12 	-6.15291e-15 	6.13616e-15
0.174474 	99997.6 	1.161 	-3.46267e-12 	-1.58284e-14 	1.58166e-14
0.175474 	99997.6 	1.161 	3.59255e-12 	-1.67985e-14 	1.67935e-14
0.176474 	99997.6 	1.161 	-9.86634e-13 	-7.33921e-15 	7.33593e-15
0.177474 	99997.6 	1.161 	2.57538e-12 	0 	0
0.178474 	99997.6 	1.161 	7.01048e-12 	-2.25017e-15 	2.25017e-15
0.179474 	99997.6 	1.161 	-9.33467e-12 	9.93583e-15 	-9.93583e-15
0.180473 	99997.6 	1.161 	-9.25842e-12 	8.73844e-15 	-8.73844e-15
0.181473 	99997.6 	1.161 	1.335e-12 	1.17102e-15 	-1.17102e-15
0.182473 	99997.6 	1.161 	4.45546e-12 	0 	0
0.183473 	99997.6 	1.161 	-7.9317e-12 	0 	0
0.184473 	99997.6 	1.161 	9.60315e-12 	0 	0
0.185473 	99997.6 	1.161 	1.75966e-11 	0 	0
0.186473 	99997.6 	1.161 	4.03284e-12 	0 	0
0.187472 	99997.6 	1.161 	-1.09225e-11 	0 	0
0.188472 	99997.6 	1.161 	-1.00929e-11 	0 	0
0.189472 	99997.6 	1.161 	-3.1035e-13 	9.29977e-16 	-9.29977e-16
0.190472 	99997.6 	1.161 	2.31515e-12 	6.67639e-15 	-6.67639e-15
0.191472 	99997.6 	1.161 	-2.91004e-12 	0 	0
0.192472 	99997.6 	1.161 	-2.42016e-12 	0 	0
0.193471 	99997.6 	1.161 	3.18519e-12 	-1.5194e-15 	1.5194e-15
0.194471 	99997.6 	1.161 	-8.92756e-14 	2.98198e-15 	-2.98198e-15
0.195471 	99997.6 	1.161 	-2.56156e-12 	0 	0
0.196471 	99997.6 	1.161 	7.44953e-12 	-8.46549e-15 	8.46549e-15
0.197471 	99997.6 	1.161 	-8.63091e-12 	0 	0
0.198471 	99997.6 	1.161 	-1.07129e-11 	1.02969e-15 	-1.02605e-15
0.199471 	99997.6 	1.161 	1.82134e-12 	7.2583e-15 	-7.25157e-15
0.20047 	99997.6 	1.161 	-4.4848e-12 	8.29093e-15 	-8.2785e-15
0.20147 	99997.6 	1.161 	-7.91845e-12 	1.96374e-15 	-1.9577e-15
0.20247 	99997.6 	1.161 	-1.85509e-12 	0 	0
0.20347 	99997.6 	1.161 	4.16731e-12 	-2.49927e-15 	2.49927e-15
0.20447 	99997.6 	1.161 	2.06847e-11 	-9.27308e-15 	9.27308e-15
0.20547 	99997.6 	1.161 	1.72987e-11 	-1.16871e-14 	1.16871e-14
0.206469 	99997.6 	1.161 	-1.24503e-11 	-2.88457e-15 	2.88457e-15
0.207469 	99997.6 	1.161 	-7.44074e-12 	-6.04311e-15 	6.04311e-15
0.208469 	99997.6 	1.161 	-6.8006e-12 	2.18775e-15 	-2.18775e-15
0.209469 	99997.6 	1.161 	1.09191e-11 	0 	0
0.210469 	99997.6 	1.161 	2.02832e-11 	0 	0
0.211469 	99997.6 	1.161 	1.6951e-11 	-2.76052e-15 	2.76052e-15
0.212468 	99997.6 	1.161 	-6.75438e-12 	-1.13664e-14 	1.13664e-14
0.213468 	99997.6 	1.161 	-3.68468e-11 	-1.27137e-14 	1.27137e-14
0.214468 	99997.6 	1.161 	-1.98316e-11 	-2.05496e-14 	2.05496e-14
0.215468 	99997.6 	1.161 	1.25778e-12 	-2.31483e-14 	2.31483e-14
0.216468 	99997.6 	1.161 	-7.87165e-12 	-1.0676e-14 	1.0676e-14
0.217468 	99997.6 	1.161 	6.65796e-12 	-3.11848e-15 	3.11848e-15
0.218468 	99997.6 	1.161 	2.02307e-11 	0 	0
0.219467 	99997.6 	1.161 	2.23677e-11 	0 	0
0.220467 	99997.6 	1.161 	2.47371e-12 	0 	0
0.221467 	99997.6 	1.161 	-1.16528e-11 	0 	0
0.222467 	99997.6 	1.161 	5.97862e-12 	1.99815e-16 	-1.99815e-16
0.223467 	99997.6 	1.161 	6.28369e-12 	5.08789e-15 	-5.08789e-15
0.224467 	99997.6 	1.161 	1.93861e-12 	1.24896e-14 	-1.24896e-14
0.225466 	99997.6 	1.161 	-3.00756e-12 	1.6353e-15 	-1.6353e-15
0.226466 	99997.6 	1.161 	8.68121e-13 	-5.76066e-15 	5.76066e-15
0.227466 	99997.6 	1.161 	-3.4632e-12 	-1.47632e-14 	1.47632e-14
0.228466 	99997.6 	1.161 	3.95526e-13 	-1.06455e-14 	1.06455e-14
0.229466 	99997.6 	1.161 	-3.26955e-12 	-1.11028e-14 	1.11028e-14
0.230466 	99997.6 	1.161 	-9.99837e-12 	-1.58902e-14 	1.58902e-14
0.231466 	99997.6 	1.161 	-7.94779e-12 	-9.99985e-15 	9.99985e-15
0.232465 	99997.6 	1.161 	6.94374e-12 	0 	0
0.233465 	99997.6 	1.161 	5.36117e-12 	0 	0
0.234465 	99997.6 	1.161 	-3.99885e-12 	0 	0
0.235465 	99997.6 	1.161 	-1.07817e-11 	0 	0
0.236465 	99997.6 	1.161 	-1.32244e-11 	0 	0
0.237465 	99997.6 	1.161 	7.25777e-12 	0 	0
0.238464 	99997.6 	1.161 	5.42946e-12 	0 	0
0.239464 	99997.6 	1.161 	7.74088e-13 	-6.30884e-15 	6.30884e-15
0.240464 	99997.6 	1.161 	1.4008e-11 	-1.35736e-14 	1.35736e-14
0.241464 	99997.6 	1.161 	1.32411e-11 	-4.62162e-15 	4.62162e-15
0.242464 	99997.6 	1.161 	1.63603e-12 	-1.05481e-15 	1.05481e-15
0.243464 	99997.6 	1.161 	-6.12508e-12 	1.37479e-14 	-1.37479e-14
0.244464 	99997.6 	1.161 	-4.58292e-12 	2.03488e-14 	-2.03488e-14
0.245463 	99997.6 	1.161 	2.06236e-12 	1.63191e-14 	-1.63191e-14
0.246463 	99997.6 	1.161 	7.34447e-12 	-3.69172e-15 	3.69172e-15
0.247463 	99997.6 	1.161 	-9.78223e-12 	6.358e-17 	-6.358e-17
0.248463 	99997.6 	1.161 	-1.17404e-11 	4.90314e-15 	-4.90314e-15
0.249463 	99997.6 	1.161 	3.35378e-12 	-3.50615e-15 	3.50615e-15
0.250463 	99997.6 	1.161 	4.23719e-12 	-8.02135e-16 	8.02135e-16
0.251462 	99997.6 	1.161 	3.24823e-12 	0 	0
0.252462 	99997.6 	1.161 	1.28782e-11 	0 	0
0.253462 	99997.6 	1.161 	2.54341e-12 	0 	0
0.254462 	99997.6 	1.161 	-1.59003e-11 	0 	0
0.255462 	99997.6 	1.161 	-1.77653e-11 	0 	0
0.256462 	99997.6 	1.161 	-1.09471e-11 	-2.71874e-15 	2.71874e-15
0.257462 	99997.6 	1.161 	7.61058e-12 	-9.29367e-15 	9.29367e-15
0.258461 	99997.6 	1.161 	2.42738e-12 	-2.04016e-15 	2.04016e-15
0.259461 	99997.6 	1.161 	-1.02585e-11 	0 	0
0.260461 	99997.6 	1.161 	-5.75585e-13 	0 	0
0.261461 	99997.6 	1.161 	5.05667e-12 	0 	0
0.262461 	99997.6 	1.161 	-4.62054e-12 	1.58346e-15 	-1.58346e-15
0.263461 	99997.6 	1.161 	1.60963e-12 	6.15379e-15 	-6.15379e-15
0.26446 	99997.6 	1.161 	4.40864e-12 	1.34184e-14 	-1.34184e-14
0.26546 	99997.6 	1.161 	1.08353e-12 	1.13602e-14 	-1.13602e-14
0.26646 	99997.6 	1.161 	-7.00475e-14 	1.37867e-14 	-1.37867e-14
0.26746 	99997.6 	1.161 	4.9873e-12 	6.48199e-15 	-6.48199e-15
0.26846 	99997.6 	1.161 	5.56581e-12 	6.50511e-17 	-6.50511e-17
0.26946 	99997.6 	1.161 	-6.57367e-13 	0 	0
0.27046 	99997.6 	1.161 	-7.13072e-13 	0 	0
0.271459 	99997.6 	1.161 	1.02272e-12 	0 	0
0.272459 	99997.6 	1.161 	6.41834e-13 	0 	0
0.273459 	99997.6 	1.161 	-6.67144e-12 	-1.49773e-17 	1.49773e-17
0.274459 	99997.6 	1.161 	-4.24458e-12 	-3.03286e-15 	3.03286e-15
0.275459 	99997.6 	1.161 	-3.28407e-13 	-1.13183e-14 	1.13183e-14
0.276459 	99997.6 	1.161 	-1.47155e-12 	-2.2833e-15 	2.2833e-15
0.277458 	99997.6 	1.161 	3.27899e-12 	0 	0
0.278458 	99997.6 	1.161 	1.95657e-12 	0 	0
0.279458 	99997.6 	1.161 	2.62426e-12 	0 	0
0.280458 	99997.6 	1.161 	5.08647e-12 	2.32757e-17 	-2.32757e-17
0.281458 	99997.6 	1.161 	6.96574e-12 	4.96121e-15 	-4.96121e-15
0.282458 	99997.6 	1.161 	3.84135e-12 	1.02691e-14 	-1.02691e-14
0.283457 	99997.6 	1.161 	6.6072e-12 	3.86982e-15 	-3.86982e-15
0.284457 	99997.6 	1.161 	-1.3282e-11 	-7.08416e-15 	7.08416e-15
0.285457 	99997.6 	1.161 	-2.72761e-11 	-2.42799e-15 	2.42799e-15
0.286457 	99997.6 	1.161 	-1.35907e-12 	0 	0
0.287457 	99997.6 	1.161 	1.29256e-11 	0 	0
0.288457 	99997.6 	1.161 	8.3028e-12 	-4.78805e-15 	4.78805e-15
0.289457 	99997.6 	1.161 	1.59057e-12 	0 	0
0.290456 	99997.6 	1.161 	-3.35334e-12 	0 	0
0.291456 	99997.6 	1.161 	-4.99013e-12 	1.84021e-15 	-1.84021e-15
0.292456 	99997.6 	1.161 	-9.89623e-13 	-3.02663e-15 	3.02663e-15
0.293456 	99997.6 	1.161 	-4.694e-12 	0 	0
0.294456 	99997.6 	1.161 	-1.22726e-11 	0 	0
0.295456 	99997.6 	1.161 	1.21161e-11 	4.17189e-15 	-4.17189e-15
0.296455 	99997.6 	1.161 	1.03777e-11 	-2.69992e-15 	2.69992e-15
0.297455 	99997.6 	1.161 	3.35234e-12 	0 	0
0.298455 	99997.6 	1.161 	-2.04671e-12 	0 	0
0.299455 	99997.6 	1.161 	-8.52369e-12 	-1.03035e-16 	1.03035e-16
0.300455 	99997.6 	1.161 	-6.89673e-12 	-5.45342e-15 	5.45342e-15
0.301455 	99997.6 	1.161 	5.66774e-12 	4.12576e-15 	-4.12576e-15
0.302455 	99997.6 	1.161 	2.60968e-12 	-1.23135e-15 	1.23135e-15
0.303454 	99997.6 	1.161 	-9.19444e-12 	0 	0
0.304454 	99997.6 	1.161 	-2.30207e-12 	2.43794e-15 	-2.43794e-15
0.305454 	99997.6 	1.161 	1.57022e-11 	0 	0
0.306454 	99997.6 	1.161 	1.1375e-11 	0 	0
0.307454 	99997.6 	1.161 	7.31344e-12 	-8.02739e-16 	8.02739e-16
0.308454 	99997.6 	1.161 	-4.20806e-12 	-9.26644e-15 	9.26644e-15
0.309453 	99997.6 	1.161 	-1.09153e-11 	-8.74103e-15 	8.74103e-15
0.310453 	99997.6 	1.161 	-6.45886e-12 	-1.7487e-15 	1.7487e-15
0.311453 	99997.6 	1.161 	-1.60042e-12 	0 	0
0.312453 	99997.6 	1.161 	2.35383e-12 	0 	0
0.313453 	99997.6 	1.161 	2.0898e-12 	0 	0
0.314453 	99997.6 	1.161 	1.09097e-11 	3.00886e-15 	-3.00886e-15
0.315453 	99997.6 	1.161 	8.03343e-12 	0 	0
0.316452 	99997.6 	1.161 	3.51225e-12 	0 	0
0.317452 	99997.6 	1.161 	-3.48491e-12 	-1.62206e-16 	1.62206e-16
0.318452 	99997.6 	1.161 	-8.32496e-12 	-5.35871e-15 	5.35871e-15
0.319452 	99997.6 	1.161 	9.14215e-12 	-1.8735e-14 	1.8735e-14
0.320452 	99997.6 	1.161 	2.68677e-12 	-2.09739e-14 	2.09739e-14
0.321452 	99997.6 	1.161 	-9.50403e-12 	-2.06791e-14 	2.06791e-14
0.322451 	99997.6 	1.161 	5.53891e-13 	-1.68915e-14 	1.68915e-14
0.323451 	99997.6 	1.161 	4.42235e-12 	-1.80304e-14 	1.80304e-14
0.324451 	99997.6 	1.161 	7.62247e-12 	-1.30441e-14 	1.30441e-14
0.325451 	99997.6 	1.161 	4.14057e-12 	-5.04761e-15 	5.04761e-15
0.326451 	99997.6 	1.161 	-7.96103e-12 	0 	0
0.327451 	99997.6 	1.161 	-9.39095e-12 	0 	0
0.328451 	99997.6 	1.161 	1.10281e-12 	2.09452e-15 	-2.09452e-15
0.32945 	99997.6 	1.161 	8.73223e-12 	0 	0
0.33045 	99997.6 	1.161 	3.85175e-12 	0 	0
0.33145 	99997.6 	1.161 	-6.33786e-12 	0 	0
0.33245 	99997.6 	1.161 	-7.48792e-12 	-1.30473e-15 	1.30473e-15
0.33345 	99997.6 	1.161 	-9.64781e-13 	-5.98646e-15 	5.98646e-15
0.33445 	99997.6 	1.161 	-7.82705e-12 	-7.11928e-15 	7.11928e-15
0.33545 	99997.6 	1.161 	-1.08553e-11 	-1.10698e-15 	1.10698e-15
0.336449 	99997.6 	1.161 	1.2852e-11 	0 	0
0.337449 	99997.6 	1.161 	1.66983e-11 	0 	0
0.338449 	99997.6 	1.161 	1.44382e-11 	0 	0
0.339449 	99997.6 	1.161 	-9.36843e-12 	0 	0
0.340449 	99997.6 	1.161 	-2.36779e-11 	-2.50447e-19 	2.50447e-19
0.341449 	99997.6 	1.161 	-1.72628e-11 	-5.05345e-15 	5.05345e-15
0.342448 	99997.6 	1.161 	1.32921e-11 	0 	0
0.343448 	99997.6 	1.161 	7.348e-12 	0 	0
0.344448 	99997.6 	1.161 	-4.12338e-12 	6.70321e-15 	-6.70321e-15
0.345448 	99997.6 	1.161 	8.56834e-13 	2.27687e-15 	-2.27687e-15
0.346448 	99997.6 	1.161 	8.57616e-12 	4.40282e-15 	-4.40282e-15
0.347448 	99997.6 	1.161 	1.05677e-11 	0 	0
0.348448 	99997.6 	1.161 	2.13846e-12 	-3.52e-15 	3.52e-15
0.349447 	99997.6 	1.161 	-2.97822e-12 	-3.09705e-15 	3.09705e-15
0.350447 	99997.6 	1.161 	-5.54956e-12 	-9.38476e-15 	9.38476e-15
0.351447 	99997.6 	1.161 	-8.53498e-12 	-7.81254e-15 	7.81254e-15
0.352447 	99997.6 	1.161 	-4.11949e-12 	-2.29516e-15 	2.29516e-15
0.353447 	99997.6 	1.161 	-1.56392e-12 	0 	0
0.354447 	99997.6 	1.161 	6.9186e-12 	0 	0
0.355446 	99997.6 	1.161 	8.99749e-12 	2.38179e-15 	-2.38179e-15
0.356446 	99997.6 	1.161 	-5.74137e-13 	0 	0
0.357446 	99997.6 	1.161 	-8.2628e-12 	-7.57529e-15 	7.57529e-15
0.358446 	99997.6 	1.161 	-1.48974e-11 	-7.87924e-15 	7.87924e-15
0.359446 	99997.6 	1.161 	-1.06249e-11 	-3.831e-15 	3.831e-15
0.360446 	99997.6 	1.161 	8.42549e-12 	-5.45019e-15 	5.45019e-15
0.361446 	99997.6 	1.161 	1.46157e-12 	-4.63806e-16 	4.63806e-16
0.362445 	99997.6 	1.161 	9.59292e-12 	0 	0
0.363445 	99997.6 	1.161 	1.06067e-11 	-1.77471e-15 	1.77471e-15
0.364445 	99997.6 	1.161 	-2.19497e-12 	7.91037e-16 	-7.91037e-16
0.365445 	99997.6 	1.161 	-1.24076e-12 	-4.21654e-15 	4.21654e-15
0.366445 	99997.6 	1.161 	2.88284e-12 	0 	0
0.367445 	99997.6 	1.161 	5.649e-14 	2.23435e-15 	-2.23435e-15
0.368444 	99997.6 	1.161 	1.03884e-12 	0 	0
0.369444 	99997.6 	1.161 	-4.33133e-12 	0 	0
0.370444 	99997.6 	1.161 	-7.0301e-12 	-1.76041e-15 	1.76041e-15
0.371444 	99997.6 	1.161 	-6.16154e-13 	-6.29106e-15 	6.29106e-15
0.372444 	99997.6 	1.161 	1.65033e-12 	-8.77257e-15 	8.77257e-15
0.373444 	99997.6 	1.161 	1.01329e-11 	-1.33117e-14 	1.33117e-14
0.374444 	99997.6 	1.161 	9.39637e-12 	-1.57667e-14 	1.57667e-14
0.375443 	99997.6 	1.161 	-7.65371e-12 	-9.21115e-15 	9.21115e-15
0.376443 	99997.6 	1.161 	1.26888e-12 	-2.67435e-15 	2.67435e-15
0.377443 	99997.6 	1.161 	7.30531e-12 	0 	0
0.378443 	99997.6 	1.161 	-2.13593e-12 	0 	0
0.379443 	99997.6 	1.161 	-1.48399e-11 	2.39428e-15 	-2.39428e-15
0.380443 	99997.6 	1.161 	-1.11494e-11 	1.33235e-15 	-1.33235e-15
0.381442 	99997.6 	1.161 	-8.23162e-12 	3.97716e-15 	-3.97716e-15
0.382442 	99997.6 	1.161 	7.6641e-12 	0 	0
0.383442 	99997.6 	1.161 	1.09723e-11 	0 	0
0.384442 	99997.6 	1.161 	-8.68205e-12 	-1.52894e-15 	1.52894e-15
0.385442 	99997.6 	1.161 	-1.38909e-11 	0 	0
0.386442 	99997.6 	1.161 	-8.07089e-12 	0 	0
0.387442 	99997.6 	1.161 	-3.19153e-12 	9.8909e-16 	-9.8909e-16
0.388441 	99997.6 	1.161 	1.03415e-11 	6.4563e-15 	-6.4563e-15
0.389441 	99997.6 	1.161 	1.43208e-11 	5.92385e-15 	-5.92385e-15
0.390441 	99997.6 	1.161 	1.12047e-11 	2.11832e-15 	-2.11832e-15
0.391441 	99997.6 	1.161 	1.00934e-11 	0 	0
0.392441 	99997.6 	1.161 	8.87487e-12 	0 	0
0.393441 	99997.6 	1.161 	1.87638e-12 	2.17117e-15 	-2.17117e-15
0.39444 	99997.6 	1.161 	-4.71927e-12 	0 	0
0.39544 	99997.6 	1.161 	-8.47843e-12 	0 	0
0.39644 	99997.6 	1.161 	-1.71811e-11 	0 	0
0.39744 	99997.6 	1.161 	-2.7338e-12 	0 	0
0.39844 	99997.6 	1.161 	4.93301e-12 	0 	0
0.39944 	99997.6 	1.161 	5.17316e-12 	0 	0
0.40044 	99997.6 	1.161 	2.06501e-12 	0 	0
0.401439 	99997.6 	1.161 	1.57571e-12 	0 	0
0.402439 	99997.6 	1.161 	1.50434e-11 	-1.00791e-15 	1.00791e-15
0.403439 	99997.6 	1.161 	1.53371e-11 	2.58857e-15 	-2.58857e-15
0.404439 	99997.6 	1.161 	-1.13511e-11 	9.79481e-15 	-9.79481e-15
0.405439 	99997.6 	1.161 	-4.66495e-12 	1.30386e-14 	-1.30386e-14
0.406439 	99997.6 	1.161 	2.88801e-12 	1.24784e-14 	-1.24784e-14
0.407438 	99997.6 	1.161 	-7.87541e-12 	5.58392e-15 	-5.58392e-15
0.408438 	99997.6 	1.161 	-6.37087e-12 	1.4387e-15 	-1.4387e-15
0.409438 	99997.6 	1.161 	-7.68277e-12 	-1.40987e-15 	1.40987e-15
0.410438 	99997.6 	1.161 	-1.27075e-11 	0 	0
0.411438 	99997.6 	1.161 	-1.27659e-11 	0 	0
0.412438 	99997.6 	1.161 	1.29709e-11 	0 	0
0.413438 	99997.6 	1.161 	1.45169e-11 	0 	0
0.414437 	99997.6 	1.161 	-1.14582e-11 	0 	0
0.415437 	99997.6 	1.161 	-5.10893e-12 	0 	0
0.416437 	99997.6 	1.161 	-3.33443e-12 	0 	0
0.417437 	99997.6 	1.161 	-5.94757e-12 	0 	0
0.418437 	99997.6 	1.161 	-7.54611e-12 	-1.11339e-15 	1.11339e-15
0.419437 	99997.6 	1.161 	-2.99333e-12 	1.10308e-15 	-1.10308e-15
0.420436 	99997.6 	1.161 	6.44789e-13 	0 	0
0.421436 	99997.6 	1.161 	7.71885e-12 	-1.30971e-15 	1.30971e-15
0.422436 	99997.6 	1.161 	6.86685e-12 	-4.78263e-15 	4.78263e-15
0.423436 	99997.6 	1.161 	4.64668e-12 	-3.72589e-15 	3.72589e-15
0.424436 	99997.6 	1.161 	1.67503e-11 	-4.89676e-15 	4.89676e-15
0.425436 	99997.6 	1.161 	1.29143e-11 	-2.66808e-15 	2.66808e-15
0.426436 	99997.6 	1.161 	-9.97416e-12 	-4.52337e-15 	4.52337e-15
0.427435 	99997.6 	1.161 	-1.07283e-11 	-1.84903e-15 	1.84903e-15
0.428435 	99997.6 	1.161 	1.17662e-11 	-2.16465e-15 	2.16465e-15
0.429435 	99997.6 	1.161 	4.99663e-12 	1.81324e-15 	-1.81324e-15
0.430435 	99997.6 	1.161 	-7.48729e-12 	1.2155e-15 	-1.2155e-15
0.431435 	99997.6 	1.161 	-6.92825e-12 	2.6964e-15 	-2.6964e-15
0.432435 	99997.6 	1.161 	3.95041e-12 	7.28059e-16 	-7.28059e-16
0.433434 	99997.6 	1.161 	-3.78809e-12 	2.33509e-15 	-2.33509e-15
0.434434 	99997.6 	1.161 	-4.40271e-12 	4.85613e-16 	-4.85613e-16
0.435434 	99997.6 	1.161 	2.8367e-12 	1.4314e-15 	-1.4314e-15
0.436434 	99997.6 	1.161 	8.5563e-12 	-1.29496e-15 	1.29496e-15
0.437434 	99997.6 	1.161 	1.6848e-11 	-1.90232e-17 	1.90232e-17
0.438434 	99997.6 	1.161 	8.46372e-12 	0 	0
0.439434 	99997.6 	1.161 	-1.82508e-12 	-3.29667e-15 	3.29667e-15
0.440433 	99997.6 	1.161 	-5.55976e-12 	-1.12567e-14 	1.12567e-14
0.441433 	99997.6 	1.161 	-2.48152e-11 	-1.01066e-14 	1.01066e-14
0.442433 	99997.6 	1.161 	-1.49118e-11 	-1.42632e-15 	1.42632e-15
0.443433 	99997.6 	1.161 	1.69216e-12 	1.01761e-14 	-1.01761e-14
0.444433 	99997.6 	1.161 	-1.3534e-11 	1.09535e-14 	-1.09535e-14
0.445433 	99997.6 	1.161 	-2.84021e-12 	5.3877e-15 	-5.3877e-15
0.446433 	99997.6 	1.161 	1.39736e-11 	2.11929e-15 	-2.11929e-15
0.447432 	99997.6 	1.161 	1.18223e-11 	1.35404e-16 	-1.35404e-16
0.448432 	99997.6 	1.161 	7.73583e-12 	2.07383e-15 	-2.07383e-15
0.449432 	99997.6 	1.161 	1.13514e-11 	5.26065e-15 	-5.26065e-15
0.450432 	99997.6 	1.161 	3.30604e-12 	1.58095e-15 	-1.58095e-15
0.451432 	99997.6 	1.161 	-9.01034e-13 	-9.89738e-16 	9.89738e-16
0.452432 	99997.6 	1.161 	-3.79969e-12 	-6.5676e-15 	6.5676e-15
0.453431 	99997.6 	1.161 	-8.51535e-12 	-2.25955e-15 	2.25955e-15
0.454431 	99997.6 	1.161 	-5.99972e-12 	0 	0
0.455431 	99997.6 	1.161 	3.79164e-12 	0 	0
0.456431 	99997.6 	1.161 	9.08823e-12 	-8.14435e-16 	8.14435e-16
0.457431 	99997.6 	1.161 	6.83799e-12 	-5.30867e-15 	5.30867e-15
0.458431 	99997.6 	1.161 	2.63287e-12 	-1.65638e-14 	1.65638e-14
0.459431 	99997.6 	1.161 	-4.74211e-12 	-1.9464e-14 	1.9464e-14
0.46043 	99997.6 	1.161 	-9.46563e-13 	-1.78017e-14 	1.78017e-14
0.46143 	99997.6 	1.161 	1.47355e-12 	-1.39997e-14 	1.39997e-14
0.46243 	99997.6 	1.161 	-9.85276e-15 	-8.09602e-15 	8.09602e-15
0.46343 	99997.6 	1.161 	-6.69775e-12 	-1.76731e-15 	1.76731e-15
0.46443 	99997.6 	1.161 	-1.00002e-11 	0 	0
0.46543 	99997.6 	1.161 	-5.13681e-12 	0 	0
0.466429 	99997.6 	1.161 	2.27432e-13 	0 	0
0.467429 	99997.6 	1.161 	6.01375e-12 	0 	0
0.468429 	99997.6 	1.161 	3.146e-12 	0 	0
0.469429 	99997.6 	1.161 	-1.00104e-11 	0 	0
0.470429 	99997.6 	1.161 	-1.01651e-11 	0 	0
0.471429 	99997.6 	1.161 	1.42957e-11 	5.54718e-16 	-5.54718e-16
0.472429 	99997.6 	1.161 	1.41827e-11 	4.78006e-15 	-4.78006e-15
0.473428 	99997.6 	1.161 	7.55684e-12 	-2.25828e-16 	2.25828e-16
0.474428 	99997.6 	1.161 	-6.44131e-14 	-8.29413e-15 	8.29413e-15
0.475428 	99997.6 	1.161 	-6.89352e-12 	-6.33439e-15 	6.33439e-15
0.476428 	99997.6 	1.161 	8.64794e-12 	-8.00895e-15 	8.00895e-15
0.477428 	99997.6 	1.161 	9.08001e-12 	-1.83988e-15 	1.83988e-15
0.478428 	99997.6 	1.161 	3.98701e-12 	1.22612e-15 	-1.22612e-15
0.479427 	99997.6 	1.161 	-1.4131e-11 	7.13707e-15 	-7.13707e-15
0.480427 	99997.6 	1.161 	-1.9486e-11 	1.37223e-15 	-1.37223e-15
0.481427 	99997.6 	1.161 	-1.18649e-11 	0 	0
0.482427 	99997.6 	1.161 	1.0843e-11 	0 	0
0.483427 	99997.6 	1.161 	2.0325e-11 	0 	0
0.484427 	99997.6 	1.161 	8.76879e-12 	-1.65411e-16 	1.65411e-16
0.485427 	99997.6 	1.161 	-1.27273e-11 	-4.02076e-15 	4.02076e-15
0.486426 	99997.6 	1.161 	-1.54924e-11 	2.24595e-15 	-2.24595e-15
0.487426 	99997.6 	1.161 	-5.13035e-12 	0 	0
0.488426 	99997.6 	1.161 	8.56512e-13 	-5.04975e-15 	5.04975e-15
0.489426 	99997.6 	1.161 	-4.24059e-12 	-1.05017e-14 	1.05017e-14
0.490426 	99997.6 	1.161 	-2.80444e-12 	-1.18079e-14 	1.18079e-14
0.491426 	99997.6 	1.161 	-4.91277e-13 	-9.50555e-15 	9.50555e-15
0.492425 	99997.6 	1.161 	7.11022e-12 	-4.46179e-15 	4.46179e-15
0.493425 	99997.6 	1.161 	1.94405e-12 	-1.2984e-15 	1.2984e-15
0.494425 	99997.6 	1.161 	-9.06861e-12 	0 	0