/*--------------------------------*- C++ -*----------------------------------*\
| =========                 |                                                 |
| \\      /  F ield         | OpenFOAM: The Open Source CFD Toolbox           |
|  \\    /   O peration     | Version:  2312                                  |
|   \\  /    A nd           | Website:  www.openfoam.com                      |
|    \\/     M anipulation  |                                                 |
\*---------------------------------------------------------------------------*/
FoamFile
{
    version     2.0;
    format      ascii;
    arch        "LSB;label=32;scalar=64";
    class       volScalarField;
    location    "0.057";
    object      p;
}
// * * * * * * * * * * * * * * * * * * * * * * * * * * * * * * * * * * * * * //

dimensions      [1 -1 -2 0 0 0 0];

internalField   nonuniform List<scalar> 
100
(
29493.4
29367.2
29220.5
29024.8
28898.4
28677.7
28587.1
28329.1
28284.7
27983.2
27984.5
27649.6
27674.8
27341.5
27342.2
27072.1
26975.8
26849.9
26571.5
26675.3
26135
26538.1
25683.8
26416
25247.9
26276.2
24863.9
26084.2
24563
25818.6
24356
25483.3
24226.9
25107.8
24140.7
24733.3
24059.8
24394.9
23960.9
24109.3
23839.5
23876.8
23705
23688.6
23571
23535.5
23449
23412
23346.2
23315.4
23266.4
23244.9
23210.7
23199.7
23178.9
23178.3
23169.4
23178.7
23180.2
23198.4
23209.5
23237.2
23260
23303.1
23350.9
23437.3
23564.6
23795.4
24174.5
24803.6
25724.4
26942.5
28312.8
29667.9
30818.6
31713.1
32334.1
32763.9
33037.1
33232.7
33358.6
33464.7
33538.3
33613.5
33669.8
33734.4
33785.1
33845.7
33894.4
33953
34000.4
34057.2
34103.2
34158
34201.7
34253.9
34294.2
34343
34378.6
34418.1
)
;

boundaryField
{
    sides
    {
        type            zeroGradient;
    }
    empty
    {
        type            empty;
    }
}


// ************************************************************************* //
