/*--------------------------------*- C++ -*----------------------------------*\
| =========                 |                                                 |
| \\      /  F ield         | OpenFOAM: The Open Source CFD Toolbox           |
|  \\    /   O peration     | Version:  2312                                  |
|   \\  /    A nd           | Website:  www.openfoam.com                      |
|    \\/     M anipulation  |                                                 |
\*---------------------------------------------------------------------------*/
FoamFile
{
    version     2.0;
    format      ascii;
    arch        "LSB;label=32;scalar=64";
    class       volScalarField;
    location    "0.057";
    object      rho;
}
// * * * * * * * * * * * * * * * * * * * * * * * * * * * * * * * * * * * * * //

dimensions      [1 -3 0 0 0 0 0];

internalField   nonuniform List<scalar> 
100
(
0.454159
0.453126
0.451649
0.450193
0.448674
0.447241
0.445703
0.444301
0.442748
0.441361
0.439809
0.438394
0.436872
0.435363
0.433909
0.432229
0.430868
0.428954
0.427687
0.425511
0.424309
0.421894
0.420694
0.418134
0.416836
0.414299
0.412782
0.410469
0.408642
0.406713
0.40458
0.403087
0.400769
0.399642
0.397345
0.396443
0.394372
0.393567
0.391849
0.391083
0.389749
0.389033
0.388044
0.387425
0.386724
0.386245
0.385784
0.385473
0.385222
0.385091
0.385035
0.385084
0.38521
0.385432
0.38573
0.386114
0.386571
0.387104
0.387706
0.38838
0.389123
0.389946
0.390866
0.391924
0.393203
0.394868
0.397226
0.400819
0.406466
0.415134
0.42743
0.44291
0.459879
0.476087
0.48982
0.500425
0.508151
0.513651
0.517603
0.520536
0.52281
0.524657
0.526213
0.527567
0.528767
0.52985
0.530836
0.531743
0.532582
0.533364
0.534097
0.534787
0.53544
0.53606
0.536649
0.537207
0.537737
0.538234
0.538704
0.539026
)
;

boundaryField
{
    sides
    {
        type            zeroGradient;
    }
    empty
    {
        type            empty;
    }
}


// ************************************************************************* //
