/*--------------------------------*- C++ -*----------------------------------*\
| =========                 |                                                 |
| \\      /  F ield         | OpenFOAM: The Open Source CFD Toolbox           |
|  \\    /   O peration     | Version:  2312                                  |
|   \\  /    A nd           | Website:  www.openfoam.com                      |
|    \\/     M anipulation  |                                                 |
\*---------------------------------------------------------------------------*/
FoamFile
{
    version     2.0;
    format      ascii;
    arch        "LSB;label=32;scalar=64";
    class       volScalarField;
    location    "0.057";
    object      thermo:e;
}
// * * * * * * * * * * * * * * * * * * * * * * * * * * * * * * * * * * * * * //

dimensions      [0 2 -2 0 0 0 0];

internalField   nonuniform List<scalar> 
100
(
162342
162016
161733
161170
161011
160293
160338
159392
159701
158495
159062
157665
158359
156994
157524
156574
156510
156475
155311
156715
153976
157246
152618
157930
151417
158548
150578
158858
150263
158693
150492
158041
151118
157054
151878
155961
152510
154951
152861
154110
152906
153427
152712
152850
152367
152326
151948
151830
151502
151353
151057
150899
150627
150469
150218
150065
149830
149683
149461
149319
149105
148968
148763
148636
148457
148378
148298
148408
148678
149362
150450
152067
153905
155781
157286
158421
159067
159456
159558
159598
159506
159450
159328
159276
159180
159160
159103
159116
159094
159135
159139
159199
159220
159291
159320
159397
159428
159507
159533
159621
)
;

boundaryField
{
    sides
    {
        type            zeroGradient;
    }
    empty
    {
        type            empty;
    }
}


// ************************************************************************* //
