/*--------------------------------*- C++ -*----------------------------------*\
| =========                 |                                                 |
| \\      /  F ield         | OpenFOAM: The Open Source CFD Toolbox           |
|  \\    /   O peration     | Version:  2312                                  |
|   \\  /    A nd           | Website:  www.openfoam.com                      |
|    \\/     M anipulation  |                                                 |
\*---------------------------------------------------------------------------*/
FoamFile
{
    version     2.0;
    format      ascii;
    arch        "LSB;label=32;scalar=64";
    class       volVectorField;
    location    "0.057";
    object      U;
}
// * * * * * * * * * * * * * * * * * * * * * * * * * * * * * * * * * * * * * //

dimensions      [0 1 -1 0 0 0 0];

internalField   nonuniform List<vector> 
100
(
(174.715 0 0)
(175.851 0 0)
(177.3 0 0)
(178.696 0 0)
(180.182 0 0)
(181.554 0 0)
(183.064 0 0)
(184.413 0 0)
(185.933 0 0)
(187.278 0 0)
(188.775 0 0)
(190.156 0 0)
(191.578 0 0)
(193.048 0 0)
(194.339 0 0)
(195.944 0 0)
(197.064 0 0)
(198.83 0 0)
(199.766 0 0)
(201.685 0 0)
(202.465 0 0)
(204.482 0 0)
(205.187 0 0)
(207.195 0 0)
(207.954 0 0)
(209.808 0 0)
(210.772 0 0)
(212.33 0 0)
(213.613 0 0)
(214.801 0 0)
(216.416 0 0)
(217.273 0 0)
(219.117 0 0)
(219.776 0 0)
(221.675 0 0)
(222.299 0 0)
(224.087 0 0)
(224.792 0 0)
(226.376 0 0)
(227.196 0 0)
(228.56 0 0)
(229.461 0 0)
(230.638 0 0)
(231.56 0 0)
(232.591 0 0)
(233.482 0 0)
(234.395 0 0)
(235.219 0 0)
(236.028 0 0)
(236.769 0 0)
(237.478 0 0)
(238.13 0 0)
(238.745 0 0)
(239.31 0 0)
(239.839 0 0)
(240.326 0 0)
(240.78 0 0)
(241.199 0 0)
(241.59 0 0)
(241.951 0 0)
(242.285 0 0)
(242.584 0 0)
(242.835 0 0)
(243.004 0 0)
(243.026 0 0)
(242.768 0 0)
(241.993 0 0)
(240.297 0 0)
(237.117 0 0)
(231.882 0 0)
(224.39 0 0)
(215.197 0 0)
(205.558 0 0)
(196.863 0 0)
(190 0 0)
(185.182 0 0)
(182.126 0 0)
(180.372 0 0)
(179.488 0 0)
(179.152 0 0)
(179.146 0 0)
(179.334 0 0)
(179.637 0 0)
(180.003 0 0)
(180.408 0 0)
(180.831 0 0)
(181.266 0 0)
(181.703 0 0)
(182.143 0 0)
(182.58 0 0)
(183.015 0 0)
(183.445 0 0)
(183.871 0 0)
(184.292 0 0)
(184.709 0 0)
(185.123 0 0)
(185.534 0 0)
(185.944 0 0)
(186.354 0 0)
(186.692 0 0)
)
;

boundaryField
{
    sides
    {
        type            mywaveTransmissive;
        gamma           1.4;
        value           nonuniform List<vector> 2((186.839 0 0) (174.226 0 0));
    }
    empty
    {
        type            empty;
    }
}


// ************************************************************************* //
