/*--------------------------------*- C++ -*----------------------------------*\
| =========                 |                                                 |
| \\      /  F ield         | OpenFOAM: The Open Source CFD Toolbox           |
|  \\    /   O peration     | Version:  2312                                  |
|   \\  /    A nd           | Website:  www.openfoam.com                      |
|    \\/     M anipulation  |                                                 |
\*---------------------------------------------------------------------------*/
FoamFile
{
    version     2.0;
    format      ascii;
    arch        "LSB;label=32;scalar=64";
    class       volScalarField;
    location    "0.052";
    object      thermo:e;
}
// * * * * * * * * * * * * * * * * * * * * * * * * * * * * * * * * * * * * * //

dimensions      [0 2 -2 0 0 0 0];

internalField   nonuniform List<scalar> 
100
(
163677
163434
163015
162605
162213
161814
161470
161081
160821
160423
160307
159851
159958
159365
159778
158966
159723
158659
159696
158466
159566
158415
159207
158525
158529
158797
157500
159206
156154
159690
154604
160122
153049
160304
151745
160032
150904
159192
150592
157846
150688
156216
150946
154583
151121
153157
151078
152014
150809
151121
150384
150396
149881
149767
149356
149192
148833
148649
148323
148132
147831
147643
147366
147189
146937
146781
146563
146443
146281
146238
146204
146376
146714
147494
148710
150515
152589
154744
156534
157959
158881
159540
159893
160170
160289
160425
160464
160551
160565
160635
160643
160705
160712
160771
160778
160834
160843
160898
160907
160966
)
;

boundaryField
{
    sides
    {
        type            zeroGradient;
    }
    empty
    {
        type            empty;
    }
}


// ************************************************************************* //
