/*--------------------------------*- C++ -*----------------------------------*\
| =========                 |                                                 |
| \\      /  F ield         | OpenFOAM: The Open Source CFD Toolbox           |
|  \\    /   O peration     | Version:  2212                                  |
|   \\  /    A nd           | Website:  www.openfoam.com                      |
|    \\/     M anipulation  |                                                 |
\*---------------------------------------------------------------------------*/
FoamFile
{
    version     2.0;
    format      ascii;
    arch        "LSB;label=32;scalar=64";
    class       volScalarField;
    location    "0.01";
    object      G;
}
// * * * * * * * * * * * * * * * * * * * * * * * * * * * * * * * * * * * * * //

dimensions      [1 0 -3 0 0 0 0];

internalField   nonuniform List<scalar> 
100
(
1736.04
1728.13
1719.41
1709.86
1699.4
1687.99
1675.59
1662.15
1647.64
1632.04
1615.33
1597.51
1578.61
1558.65
1537.68
1515.74
1492.91
1469.26
1444.89
1419.87
1394.31
1368.31
1341.97
1315.39
1288.68
1261.94
1235.27
1208.78
1182.56
1156.71
1131.32
1106.49
1082.3
1058.86
1036.25
1014.56
993.87
974.282
955.88
938.758
923.009
908.728
896.015
884.974
875.71
868.336
862.969
859.732
858.753
860.169
864.121
870.757
880.235
892.714
908.367
927.369
949.911
976.19
1006.42
1040.85
1079.72
1123.32
1171.97
1226.02
1285.84
1351.84
1424.49
1504.24
1591.62
1687.14
1791.32
1904.7
2027.75
2160.92
2304.53
2458.78
2623.68
2798.98
2984.11
3178.15
3379.78
3587.25
3798.5
4011.2
4222.93
4431.32
4634.21
4829.79
5016.67
5193.89
5360.93
5517.63
5664.12
5800.78
5928.09
6046.63
6156.94
6259.38
6354.01
6440.61
)
;

boundaryField
{
    sides
    {
        type            myMarshakRadiation;
        refValue        nonuniform List<scalar> 2(7525.9 1835.28);
        refGradient     uniform 0;
        valueFraction   nonuniform List<scalar> 2(0.0361446 0.0361446);
        source          uniform 0;
        value           nonuniform List<scalar> 2(6479.83 1739.63);
    }
    empty
    {
        type            empty;
    }
}


// ************************************************************************* //
