/*--------------------------------*- C++ -*----------------------------------*\
| =========                 |                                                 |
| \\      /  F ield         | OpenFOAM: The Open Source CFD Toolbox           |
|  \\    /   O peration     | Version:  2212                                  |
|   \\  /    A nd           | Website:  www.openfoam.com                      |
|    \\/     M anipulation  |                                                 |
\*---------------------------------------------------------------------------*/
FoamFile
{
    version     2.0;
    format      ascii;
    arch        "LSB;label=32;scalar=64";
    class       volScalarField;
    location    "0.01";
    object      p;
}
// * * * * * * * * * * * * * * * * * * * * * * * * * * * * * * * * * * * * * //

dimensions      [1 -1 -2 0 0 0 0];

internalField   nonuniform List<scalar> 
100
(
99085.6
99025.1
98934.6
98803.1
98617.5
98363.1
98024.3
97585.5
97032.5
96353.4
95539.6
94586.7
93494.3
92266
90909
89433.2
87850.3
86173.6
84416.7
82592.9
80715.4
78796.5
76847.4
74878.5
72898.8
70916.7
68939.3
66973.6
65024.4
63096.4
61193.6
59319.6
57477.3
55669.4
53898
52165.3
50472.9
48822.3
47215.6
45654.2
44139
42671.8
41254.1
39888.2
38576.3
37321.5
36127.5
34998.6
33940.3
32960
32064.5
31261.9
30559.8
29964.4
29478.3
29098.7
28816.8
28618.4
28485.9
28401.7
28350
28318.9
28300.1
28288.4
28280.8
28275.6
28271.9
28269.2
28267.2
28265.8
28264.7
28264
28263.6
28263.3
28263.3
28263.4
28263.6
28264
28264.5
28265
28265.7
28266.5
28267.4
28268.4
28269.5
28270.7
28272
28273.5
28275.1
28276.9
28278.9
28281.3
28285
28293.4
28316.9
28381.7
28534.2
28813.6
29176.8
29450.9
)
;

boundaryField
{
    sides
    {
        type            zeroGradient;
    }
    empty
    {
        type            empty;
    }
}


// ************************************************************************* //
