/*--------------------------------*- C++ -*----------------------------------*\
| =========                 |                                                 |
| \\      /  F ield         | OpenFOAM: The Open Source CFD Toolbox           |
|  \\    /   O peration     | Version:  2212                                  |
|   \\  /    A nd           | Website:  www.openfoam.com                      |
|    \\/     M anipulation  |                                                 |
\*---------------------------------------------------------------------------*/
FoamFile
{
    version     2.0;
    format      ascii;
    arch        "LSB;label=32;scalar=64";
    class       volScalarField;
    location    "0.01";
    object      p;
}
// * * * * * * * * * * * * * * * * * * * * * * * * * * * * * * * * * * * * * //

dimensions      [1 -1 -2 0 0 0 0];

internalField   nonuniform List<scalar> 
100
(
99101
99047.1
98965.1
98844
98670.7
98430
98105.7
97681.2
97141.2
96473
95667.1
94718.2
93625.6
92393
91027.6
89539.9
87942.4
86248.9
84473.7
82631.1
80734.8
78797.6
76831.3
74846.4
72852.4
70857.7
68869.6
66895.2
64939.1
63006
61099.9
59224.1
57381.7
55575.1
53806.3
52077.3
50389.6
48744.6
47144.2
45589.8
44082.1
42622.6
41213
39855.1
38551.3
37304.4
36117.8
34995.8
33943.5
32967.9
32075.5
31273.8
30570.3
29970.8
29478.2
29090.4
28799.7
28593.1
28454.1
28365.6
28312.1
28281.2
28264.2
28255.2
28250.6
28248.5
28247.7
28247.7
28248.1
28248.7
28249.4
28250.2
28251.1
28251.9
28252.8
28253.7
28254.6
28255.5
28256.4
28257.3
28258.2
28259.2
28260.2
28261.3
28262.4
28263.6
28264.9
28266.3
28267.8
28269.4
28271.3
28273.5
28277
28285.2
28308.5
28373.3
28526
28805.7
29169.1
29443.6
)
;

boundaryField
{
    sides
    {
        type            zeroGradient;
    }
    empty
    {
        type            empty;
    }
}


// ************************************************************************* //
