/*--------------------------------*- C++ -*----------------------------------*\
| =========                 |                                                 |
| \\      /  F ield         | OpenFOAM: The Open Source CFD Toolbox           |
|  \\    /   O peration     | Version:  2212                                  |
|   \\  /    A nd           | Website:  www.openfoam.com                      |
|    \\/     M anipulation  |                                                 |
\*---------------------------------------------------------------------------*/
FoamFile
{
    version     2.0;
    format      ascii;
    arch        "LSB;label=32;scalar=64";
    class       volScalarField;
    location    "0.01";
    object      rho;
}
// * * * * * * * * * * * * * * * * * * * * * * * * * * * * * * * * * * * * * //

dimensions      [1 -3 0 0 0 0 0];

internalField   nonuniform List<scalar> 
100
(
1.16031
1.15986
1.15917
1.15816
1.15671
1.15469
1.15197
1.1484
1.14386
1.13822
1.13141
1.12336
1.11406
1.10352
1.0918
1.07897
1.06512
1.05036
1.03478
1.01852
1.00166
0.984321
0.966592
0.94856
0.930305
0.911896
0.893398
0.874873
0.856364
0.837913
0.819559
0.801336
0.783273
0.765399
0.747737
0.730309
0.713137
0.696239
0.679643
0.663366
0.647427
0.631847
0.616653
0.601874
0.587547
0.573712
0.56042
0.547732
0.53572
0.524479
0.514102
0.504693
0.496357
0.489179
0.483207
0.478429
0.474759
0.472047
0.470093
0.468685
0.467625
0.466745
0.465906
0.464988
0.46387
0.462415
0.460449
0.457755
0.454072
0.449112
0.442598
0.434309
0.424134
0.412111
0.398439
0.38348
0.3677
0.351624
0.335775
0.320618
0.30653
0.293779
0.282527
0.272835
0.264681
0.257981
0.252604
0.248391
0.24517
0.242769
0.241028
0.239801
0.238968
0.238445
0.238214
0.238368
0.239136
0.240712
0.2428
0.244364
)
;

boundaryField
{
    sides
    {
        type            zeroGradient;
    }
    empty
    {
        type            empty;
    }
}


// ************************************************************************* //
