/*--------------------------------*- C++ -*----------------------------------*\
| =========                 |                                                 |
| \\      /  F ield         | OpenFOAM: The Open Source CFD Toolbox           |
|  \\    /   O peration     | Version:  2212                                  |
|   \\  /    A nd           | Website:  www.openfoam.com                      |
|    \\/     M anipulation  |                                                 |
\*---------------------------------------------------------------------------*/
FoamFile
{
    version     2.0;
    format      ascii;
    arch        "LSB;label=32;scalar=64";
    class       volScalarField;
    location    "0.01";
    object      rho;
}
// * * * * * * * * * * * * * * * * * * * * * * * * * * * * * * * * * * * * * //

dimensions      [1 -3 0 0 0 0 0];

internalField   nonuniform List<scalar> 
100
(
1.16018
1.15968
1.15892
1.15782
1.15626
1.15413
1.15129
1.1476
1.14294
1.13721
1.13033
1.12224
1.11294
1.10244
1.09079
1.07805
1.06433
1.0497
1.03429
1.01819
1.0015
0.984322
0.96675
0.948866
0.930746
0.912459
0.894066
0.87563
0.857193
0.838799
0.820486
0.802287
0.784235
0.766357
0.748679
0.731223
0.714011
0.697065
0.68041
0.664069
0.648057
0.6324
0.617125
0.602262
0.587849
0.573929
0.560554
0.547788
0.535707
0.524411
0.513996
0.504572
0.496248
0.489113
0.483211
0.478521
0.474947
0.47232
0.470428
0.469051
0.467989
0.467077
0.466181
0.465186
0.463976
0.462416
0.460334
0.457514
0.453697
0.448601
0.441956
0.433553
0.423292
0.41122
0.397544
0.382626
0.366928
0.35097
0.335263
0.320259
0.306327
0.293724
0.282606
0.273028
0.264966
0.258335
0.253004
0.248816
0.245603
0.243195
0.241434
0.24018
0.239315
0.238758
0.238492
0.238612
0.239349
0.240894
0.242957
0.2445
)
;

boundaryField
{
    sides
    {
        type            zeroGradient;
    }
    empty
    {
        type            empty;
    }
}


// ************************************************************************* //
