/*--------------------------------*- C++ -*----------------------------------*\
| =========                 |                                                 |
| \\      /  F ield         | OpenFOAM: The Open Source CFD Toolbox           |
|  \\    /   O peration     | Version:  2212                                  |
|   \\  /    A nd           | Website:  www.openfoam.com                      |
|    \\/     M anipulation  |                                                 |
\*---------------------------------------------------------------------------*/
FoamFile
{
    version     2.0;
    format      ascii;
    arch        "LSB;label=32;scalar=64";
    class       volScalarField;
    location    "0.01";
    object      T;
}
// * * * * * * * * * * * * * * * * * * * * * * * * * * * * * * * * * * * * * //

dimensions      [0 0 0 1 0 0 0];

internalField   nonuniform List<scalar> 
100
(
299.911
299.857
299.777
299.66
299.496
299.269
298.968
298.576
298.081
297.472
296.737
295.873
294.875
293.745
292.485
291.1
289.599
287.989
286.279
284.48
282.599
280.645
278.628
276.554
274.432
272.267
270.065
267.833
265.575
263.295
260.997
258.685
256.363
254.034
251.7
249.366
247.034
244.706
242.388
240.083
237.793
235.523
233.279
231.066
228.892
226.765
224.696
222.698
220.786
218.983
217.309
215.788
214.447
213.308
212.387
211.689
211.204
210.91
210.774
210.767
210.864
211.048
211.321
211.695
212.203
212.897
213.855
215.187
217.028
219.545
222.923
227.349
233
240.016
248.488
258.43
269.778
282.37
295.952
310.187
324.673
338.979
352.675
365.383
376.805
386.745
395.124
401.967
407.386
411.551
414.659
416.917
418.519
419.648
420.485
421.255
422.24
423.674
425.416
426.736
)
;

boundaryField
{
    sides
    {
        type            zeroGradient;
    }
    empty
    {
        type            empty;
    }
}


// ************************************************************************* //
