/*--------------------------------*- C++ -*----------------------------------*\
| =========                 |                                                 |
| \\      /  F ield         | OpenFOAM: The Open Source CFD Toolbox           |
|  \\    /   O peration     | Version:  2212                                  |
|   \\  /    A nd           | Website:  www.openfoam.com                      |
|    \\/     M anipulation  |                                                 |
\*---------------------------------------------------------------------------*/
FoamFile
{
    version     2.0;
    format      ascii;
    arch        "LSB;label=32;scalar=64";
    class       volScalarField;
    location    "0.01";
    object      thermo:e;
}
// * * * * * * * * * * * * * * * * * * * * * * * * * * * * * * * * * * * * * //

dimensions      [0 2 -2 0 0 0 0];

internalField   nonuniform List<scalar> 
100
(
213515
213477
213422
213341
213226
213069
212860
212588
212244
211821
211311
210711
210018
209233
208358
207397
206354
205235
204047
202796
201489
200131
198728
197286
195809
194303
192771
191217
189645
188058
186457
184847
183229
181606
179979
178351
176725
175101
173484
171875
170276
168692
167124
165578
164059
162572
161126
159729
158392
157130
155959
154895
153956
153159
152514
152025
151686
151479
151385
151380
151447
151577
151767
152029
152385
152871
153542
154474
155762
157523
159886
162981
166929
171828
177739
184669
192571
201330
210766
220645
230685
240590
250063
258845
266731
273589
279367
284083
287817
290685
292826
294380
295483
296260
296836
297366
298044
299031
300229
301137
)
;

boundaryField
{
    sides
    {
        type            zeroGradient;
    }
    empty
    {
        type            empty;
    }
}


// ************************************************************************* //
