/*--------------------------------*- C++ -*----------------------------------*\
| =========                 |                                                 |
| \\      /  F ield         | OpenFOAM: The Open Source CFD Toolbox           |
|  \\    /   O peration     | Version:  2212                                  |
|   \\  /    A nd           | Website:  www.openfoam.com                      |
|    \\/     M anipulation  |                                                 |
\*---------------------------------------------------------------------------*/
FoamFile
{
    version     2.0;
    format      ascii;
    arch        "LSB;label=32;scalar=64";
    class       volVectorField;
    location    "0.01";
    object      U;
}
// * * * * * * * * * * * * * * * * * * * * * * * * * * * * * * * * * * * * * //

dimensions      [0 1 -1 0 0 0 0];

internalField   nonuniform List<vector> 
100
(
(0.249229 0 0)
(0.40019 0 0)
(0.626055 0 0)
(0.954582 0 0)
(1.41888 0 0)
(2.05662 0 0)
(2.90843 0 0)
(4.0156 0 0)
(5.41752 0 0)
(7.14905 0 0)
(9.2383 0 0)
(11.7051 0 0)
(14.5603 0 0)
(17.806 0 0)
(21.4364 0 0)
(25.439 0 0)
(29.7963 0 0)
(34.4871 0 0)
(39.4885 0 0)
(44.7762 0 0)
(50.3264 0 0)
(56.1156 0 0)
(62.1218 0 0)
(68.3242 0 0)
(74.7038 0 0)
(81.2431 0 0)
(87.925 0 0)
(94.7336 0 0)
(101.657 0 0)
(108.684 0 0)
(115.802 0 0)
(123.002 0 0)
(130.273 0 0)
(137.607 0 0)
(144.993 0 0)
(152.423 0 0)
(159.889 0 0)
(167.38 0 0)
(174.882 0 0)
(182.387 0 0)
(189.882 0 0)
(197.352 0 0)
(204.78 0 0)
(212.143 0 0)
(219.417 0 0)
(226.569 0 0)
(233.56 0 0)
(240.341 0 0)
(246.853 0 0)
(253.021 0 0)
(258.767 0 0)
(264.004 0 0)
(268.644 0 0)
(272.613 0 0)
(275.869 0 0)
(278.413 0 0)
(280.298 0 0)
(281.62 0 0)
(282.498 0 0)
(283.056 0 0)
(283.398 0 0)
(283.606 0 0)
(283.734 0 0)
(283.815 0 0)
(283.871 0 0)
(283.911 0 0)
(283.941 0 0)
(283.965 0 0)
(283.985 0 0)
(284.002 0 0)
(284.016 0 0)
(284.03 0 0)
(284.042 0 0)
(284.053 0 0)
(284.064 0 0)
(284.075 0 0)
(284.086 0 0)
(284.097 0 0)
(284.109 0 0)
(284.12 0 0)
(284.133 0 0)
(284.145 0 0)
(284.159 0 0)
(284.173 0 0)
(284.187 0 0)
(284.203 0 0)
(284.22 0 0)
(284.238 0 0)
(284.257 0 0)
(284.277 0 0)
(284.298 0 0)
(284.317 0 0)
(284.323 0 0)
(284.272 0 0)
(284.032 0 0)
(283.294 0 0)
(281.576 0 0)
(278.605 0 0)
(275.143 0 0)
(272.872 0 0)
)
;

boundaryField
{
    sides
    {
        type            zeroGradient;
    }
    empty
    {
        type            empty;
    }
}


// ************************************************************************* //
