/*--------------------------------*- C++ -*----------------------------------*\
| =========                 |                                                 |
| \\      /  F ield         | OpenFOAM: The Open Source CFD Toolbox           |
|  \\    /   O peration     | Version:  2312                                  |
|   \\  /    A nd           | Website:  www.openfoam.com                      |
|    \\/     M anipulation  |                                                 |
\*---------------------------------------------------------------------------*/
FoamFile
{
    version     2.0;
    format      ascii;
    arch        "LSB;label=32;scalar=64";
    class       volScalarField;
    location    "1e-05";
    object      p;
}
// * * * * * * * * * * * * * * * * * * * * * * * * * * * * * * * * * * * * * //

dimensions      [1 -1 -2 0 0 0 0];

internalField   nonuniform List<scalar> 
100
(
1263.19
1263.19
1263.19
1263.19
1263.19
1263.19
1263.19
1263.19
1263.19
1263.19
1263.19
1263.19
1263.19
1263.19
1263.19
1263.19
1263.19
1263.19
1263.19
1263.19
1263.19
1263.19
1263.19
1263.19
1263.19
1263.19
1263.19
1263.19
1263.19
1263.19
1263.19
1263.19
1263.19
1263.19
1263.19
1263.19
1263.19
1263.19
1263.19
1263.19
1263.19
1263.19
1263.19
1263.19
1263.19
1263.23
1728.54
11357
58138.5
206243
144458
141914
141894
141894
141894
141894
141894
141894
141894
141894
141894
141894
141894
141894
141894
141894
141894
141894
141894
141894
141894
141894
141894
141894
141894
141894
141894
141894
141894
141894
141894
141894
141894
141894
141894
141894
141894
141894
141894
141894
141894
141894
141894
141894
141894
141894
141894
141894
141894
141894
)
;

boundaryField
{
    sides
    {
        type            zeroGradient;
    }
    empty
    {
        type            empty;
    }
}


// ************************************************************************* //
