/*--------------------------------*- C++ -*----------------------------------*\
| =========                 |                                                 |
| \\      /  F ield         | OpenFOAM: The Open Source CFD Toolbox           |
|  \\    /   O peration     | Version:  2312                                  |
|   \\  /    A nd           | Website:  www.openfoam.com                      |
|    \\/     M anipulation  |                                                 |
\*---------------------------------------------------------------------------*/
FoamFile
{
    version     2.0;
    format      ascii;
    arch        "LSB;label=32;scalar=64";
    class       volScalarField;
    location    "1e-05";
    object      p;
}
// * * * * * * * * * * * * * * * * * * * * * * * * * * * * * * * * * * * * * //

dimensions      [1 -1 -2 0 0 0 0];

internalField   nonuniform List<scalar> 
100
(
4.63368e+07
4.63368e+07
4.63368e+07
4.63368e+07
4.63368e+07
4.63368e+07
4.63368e+07
4.63368e+07
4.63368e+07
4.63368e+07
4.63368e+07
4.63368e+07
4.63368e+07
4.63368e+07
4.63368e+07
4.63368e+07
4.63368e+07
4.63368e+07
4.63368e+07
4.63368e+07
4.63368e+07
4.63368e+07
4.63368e+07
4.63368e+07
4.63368e+07
4.63368e+07
4.63368e+07
4.63368e+07
4.63368e+07
4.63368e+07
4.63368e+07
4.63368e+07
4.63368e+07
4.63368e+07
4.63368e+07
4.63368e+07
4.63368e+07
4.63368e+07
4.63368e+07
4.63369e+07
4.63391e+07
4.63881e+07
4.74196e+07
6.58308e+07
2.08667e+08
5.6053e+08
8.49621e+08
9.07079e+08
8.75717e+08
8.48292e+08
8.45768e+08
9.22953e+08
9.53654e+08
9.23393e+08
9.508e+08
9.91159e+08
1.03162e+09
1.06376e+09
1.07829e+09
1.06622e+09
1.02441e+09
9.60341e+08
8.90866e+08
8.33032e+08
7.94737e+08
7.73862e+08
7.64147e+08
7.60171e+08
7.58713e+08
7.5823e+08
7.58084e+08
7.58045e+08
7.58035e+08
7.58032e+08
7.58032e+08
7.58032e+08
7.58032e+08
7.58032e+08
7.58032e+08
7.58032e+08
7.58032e+08
7.58032e+08
7.58032e+08
7.58032e+08
7.58032e+08
7.58032e+08
7.58032e+08
7.58032e+08
7.58032e+08
7.58032e+08
7.58032e+08
7.58032e+08
7.58032e+08
7.58032e+08
7.58032e+08
7.58032e+08
7.58032e+08
7.58032e+08
7.58032e+08
7.58032e+08
)
;

boundaryField
{
    sides
    {
        type            zeroGradient;
    }
    empty
    {
        type            empty;
    }
}


// ************************************************************************* //
