/*--------------------------------*- C++ -*----------------------------------*\
| =========                 |                                                 |
| \\      /  F ield         | OpenFOAM: The Open Source CFD Toolbox           |
|  \\    /   O peration     | Version:  2312                                  |
|   \\  /    A nd           | Website:  www.openfoam.com                      |
|    \\/     M anipulation  |                                                 |
\*---------------------------------------------------------------------------*/
FoamFile
{
    version     2.0;
    format      ascii;
    arch        "LSB;label=32;scalar=64";
    class       volScalarField;
    location    "1e-05";
    object      thermo:e;
}
// * * * * * * * * * * * * * * * * * * * * * * * * * * * * * * * * * * * * * //

dimensions      [0 2 -2 0 0 0 0];

internalField   nonuniform List<scalar> 
100
(
5.95678e+07
5.95678e+07
5.95678e+07
5.95678e+07
5.95678e+07
5.95678e+07
5.95678e+07
5.95678e+07
5.95678e+07
5.95678e+07
5.95678e+07
5.95678e+07
5.95678e+07
5.95678e+07
5.95678e+07
5.95678e+07
5.95678e+07
5.95678e+07
5.95678e+07
5.95678e+07
5.95678e+07
5.95678e+07
5.95678e+07
5.95678e+07
5.95678e+07
5.95678e+07
5.95678e+07
5.95678e+07
5.95678e+07
5.95678e+07
5.95678e+07
5.95678e+07
5.95678e+07
5.95678e+07
5.95678e+07
5.95678e+07
5.95678e+07
5.95678e+07
5.95679e+07
5.95679e+07
5.95691e+07
5.95999e+07
6.04132e+07
7.80224e+07
2.04293e+08
5.03373e+08
9.50398e+08
1.5681e+09
2.43609e+09
3.6747e+09
5.42727e+09
7.98893e+09
1.19728e+10
1.74154e+10
2.36738e+10
2.99413e+10
3.57182e+10
4.06205e+10
4.43874e+10
4.68927e+10
4.82428e+10
4.86864e+10
4.85684e+10
4.82463e+10
4.79618e+10
4.77898e+10
4.7707e+10
4.76728e+10
4.76602e+10
4.76561e+10
4.76548e+10
4.76545e+10
4.76544e+10
4.76544e+10
4.76544e+10
4.76544e+10
4.76544e+10
4.76544e+10
4.76544e+10
4.76544e+10
4.76544e+10
4.76544e+10
4.76544e+10
4.76544e+10
4.76544e+10
4.76544e+10
4.76544e+10
4.76544e+10
4.76544e+10
4.76544e+10
4.76544e+10
4.76544e+10
4.76544e+10
4.76544e+10
4.76544e+10
4.76544e+10
4.76544e+10
4.76544e+10
4.76544e+10
4.76544e+10
)
;

boundaryField
{
    sides
    {
        type            zeroGradient;
    }
    empty
    {
        type            empty;
    }
}


// ************************************************************************* //
