/*--------------------------------*- C++ -*----------------------------------*\
| =========                 |                                                 |
| \\      /  F ield         | OpenFOAM: The Open Source CFD Toolbox           |
|  \\    /   O peration     | Version:  2312                                  |
|   \\  /    A nd           | Website:  www.openfoam.com                      |
|    \\/     M anipulation  |                                                 |
\*---------------------------------------------------------------------------*/
FoamFile
{
    version     2.0;
    format      ascii;
    arch        "LSB;label=32;scalar=64";
    class       volVectorField;
    location    "1e-05";
    object      U;
}
// * * * * * * * * * * * * * * * * * * * * * * * * * * * * * * * * * * * * * //

dimensions      [0 1 -1 0 0 0 0];

internalField   nonuniform List<vector> 
100
(
(-1.40911e-19 0 0)
(3.75979e-17 0 0)
(3.33214e-17 0 0)
(-2.18567e-17 0 0)
(-4.89216e-17 0 0)
(-1.40911e-19 0 0)
(3.75979e-17 0 0)
(3.67241e-17 0 0)
(-4.10006e-17 0 0)
(-3.17486e-17 0 0)
(1.71399e-18 0 0)
(7.33493e-18 0 0)
(0 0 0)
(-6.94403e-18 0 0)
(-3.90896e-19 0 0)
(1.91851e-19 0 0)
(7.14308e-18 0 0)
(0 0 0)
(-6.94403e-18 0 0)
(-3.90896e-19 0 0)
(0 0 0)
(7.33493e-18 0 0)
(0 0 0)
(-6.94403e-18 0 0)
(-1.99045e-19 0 0)
(-6.30642e-19 0 0)
(-1.17108e-18 0 0)
(4.0308e-19 0 0)
(1.59769e-18 0 0)
(3.34634e-17 0 0)
(5.07048e-17 0 0)
(0 0 0)
(0 0 0)
(-3.34435e-17 0 0)
(-2.99487e-19 0 0)
(3.3743e-17 0 0)
(0 0 0)
(0 0 0)
(-3.34435e-17 0 0)
(-4.74798e-17 0 0)
(2.03749e-18 0 0)
(3.16302e-18 0 0)
(-8.81657e-16 0 0)
(-1.68967e-11 0 0)
(-2.33216e-07 0 0)
(-0.00295018 0 0)
(-0.205129 0 0)
(-1.57199 0 0)
(-7.47733 0 0)
(-4.56798 0 0)
(14.2727 0 0)
(0.55559 0 0)
(0.00384984 0 0)
(2.47019e-05 0 0)
(1.03592e-07 0 0)
(3.36087e-10 0 0)
(7.8508e-13 0 0)
(0 0 0)
(2.54134e-15 0 0)
(2.57655e-14 0 0)
(-4.00702e-14 0 0)
(-6.27252e-14 0 0)
(0 0 0)
(0 0 0)
(5.8592e-14 0 0)
(3.16699e-15 0 0)
(-6.1759e-14 0 0)
(0 0 0)
(0 0 0)
(7.45306e-14 0 0)
(6.27252e-14 0 0)
(-7.31814e-14 0 0)
(-9.0727e-15 0 0)
(8.70165e-14 0 0)
(1.2438e-14 0 0)
(-1.72004e-14 0 0)
(-5.34168e-14 0 0)
(0 0 0)
(7.49173e-14 0 0)
(-4.30009e-15 0 0)
(-1.72004e-14 0 0)
(-5.13819e-14 0 0)
(-2.03492e-15 0 0)
(7.49173e-14 0 0)
(-4.30009e-15 0 0)
(-1.72004e-14 0 0)
(-5.13819e-14 0 0)
(1.02764e-14 0 0)
(6.2606e-14 0 0)
(-7.66038e-14 0 0)
(-7.60923e-14 0 0)
(8.60648e-15 0 0)
(7.47394e-14 0 0)
(-1.15574e-14 0 0)
(-7.07395e-14 0 0)
(-2.22621e-15 0 0)
(1.27347e-14 0 0)
(7.17885e-14 0 0)
(-1.15574e-14 0 0)
(-7.07395e-14 0 0)
)
;

boundaryField
{
    sides
    {
        type            zeroGradient;
    }
    empty
    {
        type            empty;
    }
}


// ************************************************************************* //
