/*--------------------------------*- C++ -*----------------------------------*\
| =========                 |                                                 |
| \\      /  F ield         | OpenFOAM: The Open Source CFD Toolbox           |
|  \\    /   O peration     | Version:  2312                                  |
|   \\  /    A nd           | Website:  www.openfoam.com                      |
|    \\/     M anipulation  |                                                 |
\*---------------------------------------------------------------------------*/
FoamFile
{
    version     2.0;
    format      ascii;
    arch        "LSB;label=32;scalar=64";
    class       volVectorField;
    location    "1e-05";
    object      U;
}
// * * * * * * * * * * * * * * * * * * * * * * * * * * * * * * * * * * * * * //

dimensions      [0 1 -1 0 0 0 0];

internalField   nonuniform List<vector> 
100
(
(0 0 0)
(0 0 0)
(-1.534e-13 0 0)
(0 0 0)
(1.534e-13 0 0)
(0 0 0)
(0 0 0)
(-1.534e-13 0 0)
(0 0 0)
(-2.59858e-13 0 0)
(-1.63284e-12 0 0)
(-4.39262e-13 0 0)
(-3.75689e-13 0 0)
(-1.19358e-12 0 0)
(1.16323e-12 0 0)
(4.13258e-13 0 0)
(-7.21912e-15 0 0)
(-3.75689e-13 0 0)
(-1.19358e-12 0 0)
(1.16323e-12 0 0)
(4.13258e-13 0 0)
(-7.21912e-15 0 0)
(-3.56905e-13 0 0)
(-1.1748e-12 0 0)
(1.50135e-12 0 0)
(7.87541e-13 0 0)
(1.87845e-14 0 0)
(-7.31188e-13 0 0)
(-1.5577e-12 0 0)
(1.42812e-12 0 0)
(1.21499e-12 0 0)
(2.24009e-13 0 0)
(-4.50827e-13 0 0)
(-8.8641e-12 0 0)
(-2.99185e-10 0 0)
(-1.13221e-08 0 0)
(-3.92513e-07 0 0)
(-1.24729e-05 0 0)
(-0.000363433 0 0)
(-0.00971809 0 0)
(-0.238795 0 0)
(-5.39356 0 0)
(-107.517 0 0)
(-1369.99 0 0)
(-6807.83 0 0)
(-15086.3 0 0)
(-21332.4 0 0)
(-22789.7 0 0)
(-20915 0 0)
(-18210.4 0 0)
(-15300.9 0 0)
(-8327.1 0 0)
(4047.47 0 0)
(13472.3 0 0)
(18454.1 0 0)
(22389.3 0 0)
(25688.7 0 0)
(28074.5 0 0)
(29004.8 0 0)
(27904.2 0 0)
(24511.3 0 0)
(19195.3 0 0)
(13082.5 0 0)
(7638.9 0 0)
(3826.39 0 0)
(1671.52 0 0)
(649.526 0 0)
(227.727 0 0)
(72.5716 0 0)
(21.0802 0 0)
(5.5842 0 0)
(1.34835 0 0)
(0.296478 0 0)
(0.0592942 0 0)
(0.0107712 0 0)
(0.00177442 0 0)
(0.000264598 0 0)
(3.56394e-05 0 0)
(4.32539e-06 0 0)
(4.71709e-07 0 0)
(4.60865e-08 0 0)
(4.01236e-09 0 0)
(3.09568e-10 0 0)
(6.01102e-12 0 0)
(0 0 0)
(0 0 0)
(0 0 0)
(0 0 0)
(0 0 0)
(-1.91786e-12 0 0)
(-8.96792e-12 0 0)
(0 0 0)
(8.96792e-12 0 0)
(1.91786e-12 0 0)
(-1.91786e-12 0 0)
(-8.96792e-12 0 0)
(0 0 0)
(8.96792e-12 0 0)
(1.91786e-12 0 0)
(0 0 0)
)
;

boundaryField
{
    sides
    {
        type            zeroGradient;
    }
    empty
    {
        type            empty;
    }
}


// ************************************************************************* //
