/*--------------------------------*- C++ -*----------------------------------*\
| =========                 |                                                 |
| \\      /  F ield         | OpenFOAM: The Open Source CFD Toolbox           |
|  \\    /   O peration     | Version:  2212                                  |
|   \\  /    A nd           | Website:  www.openfoam.com                      |
|    \\/     M anipulation  |                                                 |
\*---------------------------------------------------------------------------*/
FoamFile
{
    version     2.0;
    format      ascii;
    arch        "LSB;label=32;scalar=64";
    class       volScalarField;
    location    "0.01";
    object      p;
}
// * * * * * * * * * * * * * * * * * * * * * * * * * * * * * * * * * * * * * //

dimensions      [1 -1 -2 0 0 0 0];

internalField   nonuniform List<scalar> 
100
(
99905.4
99846.7
99757.9
99627.7
99442.6
99187
98844.7
98399.4
97836
97142.3
96309.5
95333.2
94213.3
92954.2
91563.6
90052.3
88433.2
86720
84927.2
83068.8
81158.5
79208.9
77231.6
75237.1
73234.6
71232.4
69237.5
67256.2
65293.9
63355
61443.6
59562.9
57715.8
55904.8
54131.9
52399
50707.6
49059.1
47455
45896.4
44384.8
42921.6
41508.5
40147.2
38840.2
37590.1
36400.6
35275.8
34220.8
33242
32346.2
31541
30833.8
30230.3
29733.4
29341.2
29046.2
28835.6
28693.3
28602.1
28546.7
28514.6
28496.8
28487.3
28482.5
28480.2
28479.4
28479.3
28479.7
28480.3
28481
28481.8
28482.6
28483.5
28484.4
28485.3
28486.2
28487.1
28488
28488.9
28489.9
28490.8
28491.8
28492.9
28494
28495.2
28496.5
28497.9
28499.4
28501
28502.8
28505.1
28509
28518.3
28544.7
28616.1
28777.8
29061.9
29414.7
29669.9
)
;

boundaryField
{
    sides
    {
        type            zeroGradient;
    }
    empty
    {
        type            empty;
    }
}


// ************************************************************************* //
