/*--------------------------------*- C++ -*----------------------------------*\
| =========                 |                                                 |
| \\      /  F ield         | OpenFOAM: The Open Source CFD Toolbox           |
|  \\    /   O peration     | Version:  2312                                  |
|   \\  /    A nd           | Website:  www.openfoam.com                      |
|    \\/     M anipulation  |                                                 |
\*---------------------------------------------------------------------------*/
FoamFile
{
    version     2.0;
    format      ascii;
    arch        "LSB;label=32;scalar=64";
    class       volScalarField;
    location    "0.01";
    object      p;
}
// * * * * * * * * * * * * * * * * * * * * * * * * * * * * * * * * * * * * * //

dimensions      [1 -1 -2 0 0 0 0];

internalField   nonuniform List<scalar> 
100
(
100111
100051
99960.8
99828.6
99640.7
99381.8
99035.5
98585.4
98016.7
97317.2
96478.3
95495.6
94369.3
93103.9
91707.3
90190.3
88565.7
86847.5
85050
83187.4
81273.2
79320
77339.4
75341.9
73336.6
71331.7
69334.4
67350.8
65386.3
63445.4
61532.1
59649.6
57800.7
55988
54213.5
52479
50786.1
49136.1
47530.5
45970.6
44457.6
42993.1
41578.5
40215.9
38907.5
37656.1
36465.2
35339
34282.6
33302.3
32405.1
31598.5
30890
30285.4
29787.7
29395
29100
28889.8
28748.4
28658.3
28604.1
28573.1
28556.1
28547.3
28542.9
28540.8
28540.1
28540
28540.2
28540.7
28541.3
28542
28542.8
28543.6
28544.4
28545.2
28546
28546.9
28547.8
28548.7
28549.6
28550.5
28551.5
28552.6
28553.6
28554.8
28556.1
28557.4
28558.8
28560.4
28562.2
28564.5
28568.4
28577.9
28605
28677.9
28841.9
29127.3
29478
29729.1
)
;

boundaryField
{
    sides
    {
        type            zeroGradient;
    }
    empty
    {
        type            empty;
    }
}


// ************************************************************************* //
