/*--------------------------------*- C++ -*----------------------------------*\
| =========                 |                                                 |
| \\      /  F ield         | OpenFOAM: The Open Source CFD Toolbox           |
|  \\    /   O peration     | Version:  2312                                  |
|   \\  /    A nd           | Website:  www.openfoam.com                      |
|    \\/     M anipulation  |                                                 |
\*---------------------------------------------------------------------------*/
FoamFile
{
    version     2.0;
    format      ascii;
    arch        "LSB;label=32;scalar=64";
    class       volScalarField;
    location    "0.01";
    object      p;
}
// * * * * * * * * * * * * * * * * * * * * * * * * * * * * * * * * * * * * * //

dimensions      [1 -1 -2 0 0 0 0];

internalField   nonuniform List<scalar> 
100
(
270011
265925
261486
257055
252670
248336
244054
239824
235648
231526
227458
223447
219490
215591
211747
207961
204232
200560
196946
193390
189892
186452
183071
179749
176486
173282
170139
167055
164033
161072
158174
155339
152569
149865
147229
144664
142171
139755
137418
135164
133000
130929
128959
127096
125348
123721
122222
120860
119637
118559
117625
116833
116177
115647
115230
114911
114676
114508
114391
114314
114266
114238
114223
114216
114216
114218
114223
114228
114235
114241
114249
114258
114270
114288
114318
114366
114442
114560
114732
114974
115293
115690
116154
116663
117187
117691
118145
118529
118834
119060
119218
119322
119387
119425
119446
119458
119464
119466
119467
119465
)
;

boundaryField
{
    sides
    {
        type            zeroGradient;
    }
    empty
    {
        type            empty;
    }
}


// ************************************************************************* //
