/*--------------------------------*- C++ -*----------------------------------*\
| =========                 |                                                 |
| \\      /  F ield         | OpenFOAM: The Open Source CFD Toolbox           |
|  \\    /   O peration     | Version:  2312                                  |
|   \\  /    A nd           | Website:  www.openfoam.com                      |
|    \\/     M anipulation  |                                                 |
\*---------------------------------------------------------------------------*/
FoamFile
{
    version     2.0;
    format      ascii;
    arch        "LSB;label=32;scalar=64";
    class       volScalarField;
    location    "0.01";
    object      rho;
}
// * * * * * * * * * * * * * * * * * * * * * * * * * * * * * * * * * * * * * //

dimensions      [1 -3 0 0 0 0 0];

internalField   nonuniform List<scalar> 
100
(
1.16023
1.15973
1.15898
1.15789
1.15633
1.15418
1.1513
1.14756
1.14282
1.13697
1.12995
1.12169
1.1122
1.10149
1.08961
1.07665
1.06269
1.04785
1.03223
1.01593
0.999077
0.981754
0.96406
0.946079
0.927888
0.909556
0.891143
0.872704
0.854287
0.835933
0.81768
0.799561
0.781605
0.763838
0.746285
0.728967
0.711905
0.695119
0.678627
0.662451
0.64661
0.631128
0.616029
0.601344
0.587107
0.57336
0.560152
0.547543
0.535606
0.524425
0.514097
0.504727
0.496416
0.489251
0.48328
0.478492
0.474809
0.472081
0.470117
0.468705
0.467649
0.466778
0.465954
0.465056
0.463969
0.462557
0.460657
0.458056
0.454503
0.449716
0.443419
0.435385
0.425487
0.413742
0.400331
0.385585
0.369956
0.353958
0.338111
0.322886
0.30867
0.295745
0.284289
0.274375
0.265997
0.25908
0.2535
0.249104
0.245724
0.24319
0.24134
0.240027
0.239129
0.238564
0.238318
0.238491
0.239299
0.240879
0.242865
0.244275
)
;

boundaryField
{
    sides
    {
        type            zeroGradient;
    }
    empty
    {
        type            empty;
    }
}


// ************************************************************************* //
