/*--------------------------------*- C++ -*----------------------------------*\
| =========                 |                                                 |
| \\      /  F ield         | OpenFOAM: The Open Source CFD Toolbox           |
|  \\    /   O peration     | Version:  2212                                  |
|   \\  /    A nd           | Website:  www.openfoam.com                      |
|    \\/     M anipulation  |                                                 |
\*---------------------------------------------------------------------------*/
FoamFile
{
    version     2.0;
    format      ascii;
    arch        "LSB;label=32;scalar=64";
    class       volScalarField;
    location    "0.01";
    object      rho;
}
// * * * * * * * * * * * * * * * * * * * * * * * * * * * * * * * * * * * * * //

dimensions      [1 -3 0 0 0 0 0];

internalField   nonuniform List<scalar> 10(1.00439 0.992237 0.87113 0.557741 0.286528 0.218068 0.283779 0.600979 0.596209 0.239115);

boundaryField
{
    sides
    {
        type            calculated;
        value           nonuniform List<scalar> 2(0.126842 1.00463);
    }
    empty
    {
        type            empty;
    }
}


// ************************************************************************* //
