/*--------------------------------*- C++ -*----------------------------------*\
| =========                 |                                                 |
| \\      /  F ield         | OpenFOAM: The Open Source CFD Toolbox           |
|  \\    /   O peration     | Version:  2212                                  |
|   \\  /    A nd           | Website:  www.openfoam.com                      |
|    \\/     M anipulation  |                                                 |
\*---------------------------------------------------------------------------*/
FoamFile
{
    version     2.0;
    format      ascii;
    arch        "LSB;label=32;scalar=64";
    class       volScalarField;
    location    "0.01";
    object      rho;
}
// * * * * * * * * * * * * * * * * * * * * * * * * * * * * * * * * * * * * * //

dimensions      [1 -3 0 0 0 0 0];

internalField   nonuniform List<scalar> 
100
(
1.16024
1.15975
1.15902
1.15794
1.1564
1.15427
1.15142
1.14771
1.14301
1.1372
1.13021
1.12199
1.11253
1.10185
1.09001
1.07707
1.06313
1.04831
1.03269
1.01641
0.999552
0.982229
0.964531
0.946544
0.928344
0.910001
0.891577
0.873124
0.854692
0.836323
0.818053
0.799918
0.781945
0.764161
0.74659
0.729255
0.712175
0.695372
0.678863
0.66267
0.646813
0.631314
0.616201
0.601502
0.587252
0.573492
0.560273
0.547655
0.535711
0.524525
0.514193
0.504821
0.49651
0.489344
0.483371
0.47858
0.47489
0.472153
0.470175
0.468749
0.467677
0.466791
0.465954
0.465044
0.463945
0.46252
0.460601
0.457976
0.454391
0.449563
0.443215
0.435123
0.425164
0.41336
0.399894
0.385106
0.36945
0.353442
0.337601
0.322395
0.308211
0.295326
0.283915
0.274049
0.265718
0.258844
0.253305
0.248946
0.245597
0.24309
0.241261
0.239966
0.239082
0.238526
0.238285
0.238455
0.239257
0.240836
0.242841
0.244279
)
;

boundaryField
{
    sides
    {
        type            zeroGradient;
    }
    empty
    {
        type            empty;
    }
}


// ************************************************************************* //
