/*--------------------------------*- C++ -*----------------------------------*\
| =========                 |                                                 |
| \\      /  F ield         | OpenFOAM: The Open Source CFD Toolbox           |
|  \\    /   O peration     | Version:  2312                                  |
|   \\  /    A nd           | Website:  www.openfoam.com                      |
|    \\/     M anipulation  |                                                 |
\*---------------------------------------------------------------------------*/
FoamFile
{
    version     2.0;
    format      ascii;
    arch        "LSB;label=32;scalar=64";
    class       volScalarField;
    location    "0.01";
    object      rho;
}
// * * * * * * * * * * * * * * * * * * * * * * * * * * * * * * * * * * * * * //

dimensions      [1 -3 0 0 0 0 0];

internalField   nonuniform List<scalar> 
100
(
0.897579
0.889369
0.880389
0.871363
0.862368
0.853413
0.844502
0.835637
0.826821
0.818056
0.809346
0.800691
0.792094
0.783558
0.775084
0.766675
0.758332
0.750057
0.741852
0.73372
0.725661
0.717678
0.709774
0.70195
0.694208
0.686551
0.678982
0.671504
0.664119
0.656831
0.649645
0.642565
0.635596
0.628745
0.622018
0.615423
0.60897
0.60267
0.596535
0.59058
0.584821
0.579275
0.573965
0.568911
0.564139
0.559671
0.555533
0.551747
0.548332
0.545301
0.542659
0.540403
0.538517
0.536978
0.53575
0.534795
0.534068
0.533524
0.533124
0.53283
0.532611
0.532445
0.532311
0.532198
0.532094
0.531993
0.531891
0.531785
0.531672
0.53155
0.53142
0.531282
0.531137
0.530992
0.530855
0.530741
0.53067
0.530666
0.530753
0.530946
0.53124
0.531594
0.531923
0.532096
0.531938
0.531251
0.529825
0.527467
0.524001
0.519288
0.51322
0.505724
0.496771
0.486373
0.474595
0.461554
0.447429
0.432504
0.417394
0.404287
)
;

boundaryField
{
    sides
    {
        type            zeroGradient;
    }
    empty
    {
        type            empty;
    }
}


// ************************************************************************* //
