/*--------------------------------*- C++ -*----------------------------------*\
| =========                 |                                                 |
| \\      /  F ield         | OpenFOAM: The Open Source CFD Toolbox           |
|  \\    /   O peration     | Version:  2212                                  |
|   \\  /    A nd           | Website:  www.openfoam.com                      |
|    \\/     M anipulation  |                                                 |
\*---------------------------------------------------------------------------*/
FoamFile
{
    version     2.0;
    format      ascii;
    arch        "LSB;label=32;scalar=64";
    class       volScalarField;
    location    "0.01";
    object      T;
}
// * * * * * * * * * * * * * * * * * * * * * * * * * * * * * * * * * * * * * //

dimensions      [0 0 0 1 0 0 0];

internalField   nonuniform List<scalar> 
100
(
299.919
299.869
299.793
299.681
299.522
299.303
299.008
298.624
298.136
297.534
296.807
295.95
294.96
293.839
292.589
291.216
289.728
288.134
286.443
284.665
282.809
280.883
278.896
276.857
274.771
272.646
270.487
268.3
266.089
263.859
261.613
259.355
257.089
254.817
252.543
250.269
247.999
245.735
243.48
241.238
239.012
236.807
234.627
232.478
230.367
228.302
226.294
224.354
222.497
220.742
219.109
217.622
216.303
215.175
214.254
213.544
213.039
212.721
212.561
212.531
212.606
212.769
213.018
213.364
213.833
214.475
215.362
216.596
218.308
220.657
223.823
227.992
233.339
240.01
248.099
257.634
268.56
280.733
293.916
307.787
321.963
336.021
349.54
362.137
373.506
383.44
391.842
398.724
404.181
408.373
411.495
413.75
415.336
416.438
417.248
417.992
418.946
420.307
421.897
423.052
)
;

boundaryField
{
    sides
    {
        type            zeroGradient;
    }
    empty
    {
        type            empty;
    }
}


// ************************************************************************* //
