/*--------------------------------*- C++ -*----------------------------------*\
| =========                 |                                                 |
| \\      /  F ield         | OpenFOAM: The Open Source CFD Toolbox           |
|  \\    /   O peration     | Version:  2312                                  |
|   \\  /    A nd           | Website:  www.openfoam.com                      |
|    \\/     M anipulation  |                                                 |
\*---------------------------------------------------------------------------*/
FoamFile
{
    version     2.0;
    format      ascii;
    arch        "LSB;label=32;scalar=64";
    class       volScalarField;
    location    "0.01";
    object      T;
}
// * * * * * * * * * * * * * * * * * * * * * * * * * * * * * * * * * * * * * //

dimensions      [0 0 0 1 0 0 0];

internalField   nonuniform List<scalar> 
100
(
299.918
299.867
299.789
299.676
299.515
299.293
298.995
298.608
298.117
297.51
296.78
295.919
294.925
293.8
292.547
291.171
289.681
288.085
286.393
284.613
282.756
280.83
278.843
276.804
274.719
272.594
270.436
268.25
266.04
263.811
261.566
259.31
257.045
254.775
252.503
250.231
247.962
245.7
243.447
241.207
238.983
236.78
234.602
232.455
230.345
228.282
226.275
224.336
222.481
220.727
219.094
217.607
216.289
215.161
214.24
213.531
213.028
212.712
212.555
212.527
212.604
212.77
213.02
213.365
213.832
214.469
215.348
216.57
218.265
220.592
223.729
227.864
233.17
239.796
247.836
257.322
268.2
280.33
293.478
307.326
321.491
335.552
349.087
361.712
373.119
383.097
391.547
398.475
403.976
408.208
411.364
413.647
415.256
416.378
417.204
417.965
418.935
420.304
421.887
423.025
)
;

boundaryField
{
    sides
    {
        type            zeroGradient;
    }
    empty
    {
        type            empty;
    }
}


// ************************************************************************* //
