/*--------------------------------*- C++ -*----------------------------------*\
| =========                 |                                                 |
| \\      /  F ield         | OpenFOAM: The Open Source CFD Toolbox           |
|  \\    /   O peration     | Version:  2312                                  |
|   \\  /    A nd           | Website:  www.openfoam.com                      |
|    \\/     M anipulation  |                                                 |
\*---------------------------------------------------------------------------*/
FoamFile
{
    version     2.0;
    format      ascii;
    arch        "LSB;label=32;scalar=64";
    class       volScalarField;
    location    "0.01";
    object      T;
}
// * * * * * * * * * * * * * * * * * * * * * * * * * * * * * * * * * * * * * //

dimensions      [0 0 0 1 0 0 0];

internalField   nonuniform List<scalar> 
100
(
253.264
251.734
250.056
248.365
246.675
244.988
243.303
241.623
239.947
238.275
236.609
234.948
233.293
231.644
230.002
228.367
226.74
225.12
223.508
221.905
220.311
218.726
217.152
215.588
214.035
212.493
210.964
209.448
207.945
206.457
204.985
203.529
202.092
200.673
199.276
197.902
196.553
195.232
193.941
192.684
191.466
190.29
189.16
188.084
187.065
186.111
185.227
184.418
183.691
183.047
182.489
182.017
181.628
181.318
181.078
180.9
180.776
180.694
180.646
180.624
180.622
180.633
180.655
180.684
180.718
180.756
180.798
180.843
180.891
180.943
180.999
181.06
181.129
181.208
181.302
181.417
181.562
181.75
181.994
182.311
182.716
183.223
183.844
184.59
185.473
186.512
187.735
189.188
190.928
193.028
195.57
198.642
202.332
206.723
211.891
217.899
224.789
232.551
240.971
248.78
)
;

boundaryField
{
    sides
    {
        type            zeroGradient;
    }
    empty
    {
        type            empty;
    }
}


// ************************************************************************* //
