/*--------------------------------*- C++ -*----------------------------------*\
| =========                 |                                                 |
| \\      /  F ield         | OpenFOAM: The Open Source CFD Toolbox           |
|  \\    /   O peration     | Version:  2212                                  |
|   \\  /    A nd           | Website:  www.openfoam.com                      |
|    \\/     M anipulation  |                                                 |
\*---------------------------------------------------------------------------*/
FoamFile
{
    version     2.0;
    format      ascii;
    arch        "LSB;label=32;scalar=64";
    class       volScalarField;
    location    "0.01";
    object      thermo:e;
}
// * * * * * * * * * * * * * * * * * * * * * * * * * * * * * * * * * * * * * //

dimensions      [0 2 -2 0 0 0 0];

internalField   nonuniform List<scalar> 
100
(
215252
215216
215161
215081
214967
214809
214598
214322
213972
213540
213018
212403
211693
210888
209991
209006
207938
206794
205580
204304
202972
201590
200164
198700
197203
195678
194129
192559
190972
189371
187759
186139
184513
182882
181250
179618
177989
176364
174746
173137
171539
169956
168392
166850
165335
163853
162411
161019
159686
158427
157255
156187
155241
154431
153770
153261
152898
152670
152555
152534
152587
152704
152883
153131
153468
153929
154566
155451
156680
158366
160638
163630
167468
172255
178061
184904
192746
201482
210943
220899
231073
241163
250865
259906
268065
275195
281225
286164
290080
293089
295330
296948
298087
298878
299459
299993
300678
301654
302796
303625
)
;

boundaryField
{
    sides
    {
        type            zeroGradient;
    }
    empty
    {
        type            empty;
    }
}


// ************************************************************************* //
