/*--------------------------------*- C++ -*----------------------------------*\
| =========                 |                                                 |
| \\      /  F ield         | OpenFOAM: The Open Source CFD Toolbox           |
|  \\    /   O peration     | Version:  2312                                  |
|   \\  /    A nd           | Website:  www.openfoam.com                      |
|    \\/     M anipulation  |                                                 |
\*---------------------------------------------------------------------------*/
FoamFile
{
    version     2.0;
    format      ascii;
    arch        "LSB;label=32;scalar=64";
    class       volScalarField;
    location    "0.01";
    object      thermo:e;
}
// * * * * * * * * * * * * * * * * * * * * * * * * * * * * * * * * * * * * * //

dimensions      [0 2 -2 0 0 0 0];

internalField   nonuniform List<scalar> 
100
(
451189
448463
445475
442463
439452
436445
433445
430451
427465
424488
421519
418560
415612
412675
409749
406836
403937
401051
398180
395324
392484
389661
386856
384069
381303
378556
375832
373131
370454
367804
365181
362588
360026
357500
355010
352562
350159
347805
345506
343267
341096
339001
336989
335071
333257
331557
329982
328541
327245
326098
325104
324263
323571
323017
322590
322274
322052
321906
321821
321782
321778
321798
321837
321888
321949
322017
322092
322172
322258
322350
322450
322559
322682
322822
322989
323194
323453
323787
324223
324787
325508
326411
327518
328847
330420
332270
334451
337039
340139
343880
348409
353881
360454
368276
377484
388187
400461
414290
429289
443201
)
;

boundaryField
{
    sides
    {
        type            zeroGradient;
    }
    empty
    {
        type            empty;
    }
}


// ************************************************************************* //
