/*--------------------------------*- C++ -*----------------------------------*\
| =========                 |                                                 |
| \\      /  F ield         | OpenFOAM: The Open Source CFD Toolbox           |
|  \\    /   O peration     | Version:  2312                                  |
|   \\  /    A nd           | Website:  www.openfoam.com                      |
|    \\/     M anipulation  |                                                 |
\*---------------------------------------------------------------------------*/
FoamFile
{
    version     2.0;
    format      ascii;
    arch        "LSB;label=32;scalar=64";
    class       volScalarField;
    location    "0.01";
    object      thermo:e;
}
// * * * * * * * * * * * * * * * * * * * * * * * * * * * * * * * * * * * * * //

dimensions      [0 2 -2 0 0 0 0];

internalField   nonuniform List<scalar> 
100
(
215701
215664
215609
215527
215411
215252
215038
214759
214406
213969
213444
212825
212110
211301
210400
209410
208339
207191
205974
204694
203358
201973
200544
199077
197578
196050
194498
192925
191336
189733
188118
186496
184867
183234
181600
179966
178334
176707
175087
173476
171877
170292
168726
167181
165664
164180
162737
161342
160008
158747
157573
156503
155555
154744
154082
153572
153210
152982
152869
152850
152905
153024
153204
153452
153788
154246
154878
155757
156976
158650
160906
163880
167696
172461
178244
185066
192890
201614
211070
221029
231216
241329
251063
260143
268347
275523
281601
286583
290540
293583
295853
297495
298652
299459
300053
300600
301298
302283
303421
304240
)
;

boundaryField
{
    sides
    {
        type            zeroGradient;
    }
    empty
    {
        type            empty;
    }
}


// ************************************************************************* //
