/*--------------------------------*- C++ -*----------------------------------*\
| =========                 |                                                 |
| \\      /  F ield         | OpenFOAM: The Open Source CFD Toolbox           |
|  \\    /   O peration     | Version:  2212                                  |
|   \\  /    A nd           | Website:  www.openfoam.com                      |
|    \\/     M anipulation  |                                                 |
\*---------------------------------------------------------------------------*/
FoamFile
{
    version     2.0;
    format      ascii;
    arch        "LSB;label=32;scalar=64";
    class       volVectorField;
    location    "0.01";
    object      U;
}
// * * * * * * * * * * * * * * * * * * * * * * * * * * * * * * * * * * * * * //

dimensions      [0 1 -1 0 0 0 0];

internalField   nonuniform List<vector> 
100
(
(0.233119 0 0)
(0.378896 0 0)
(0.599461 0 0)
(0.923257 0 0)
(1.38455 0 0)
(2.0225 0 0)
(2.87944 0 0)
(3.99849 0 0)
(5.42065 0 0)
(7.18208 0 0)
(9.31162 0 0)
(11.8292 0 0)
(14.7454 0 0)
(18.061 0 0)
(21.7689 0 0)
(25.8548 0 0)
(30.2994 0 0)
(35.0797 0 0)
(40.171 0 0)
(45.5475 0 0)
(51.1839 0 0)
(57.0557 0 0)
(63.1397 0 0)
(69.4145 0 0)
(75.8602 0 0)
(82.4589 0 0)
(89.1942 0 0)
(96.0512 0 0)
(103.016 0 0)
(110.077 0 0)
(117.223 0 0)
(124.443 0 0)
(131.728 0 0)
(139.068 0 0)
(146.455 0 0)
(153.879 0 0)
(161.331 0 0)
(168.803 0 0)
(176.283 0 0)
(183.761 0 0)
(191.224 0 0)
(198.658 0 0)
(206.044 0 0)
(213.363 0 0)
(220.589 0 0)
(227.691 0 0)
(234.631 0 0)
(241.363 0 0)
(247.829 0 0)
(253.964 0 0)
(259.69 0 0)
(264.923 0 0)
(269.581 0 0)
(273.593 0 0)
(276.914 0 0)
(279.539 0 0)
(281.51 0 0)
(282.911 0 0)
(283.853 0 0)
(284.453 0 0)
(284.816 0 0)
(285.027 0 0)
(285.144 0 0)
(285.208 0 0)
(285.242 0 0)
(285.259 0 0)
(285.268 0 0)
(285.272 0 0)
(285.274 0 0)
(285.274 0 0)
(285.275 0 0)
(285.275 0 0)
(285.275 0 0)
(285.276 0 0)
(285.278 0 0)
(285.28 0 0)
(285.283 0 0)
(285.286 0 0)
(285.291 0 0)
(285.296 0 0)
(285.302 0 0)
(285.308 0 0)
(285.316 0 0)
(285.324 0 0)
(285.334 0 0)
(285.345 0 0)
(285.357 0 0)
(285.37 0 0)
(285.384 0 0)
(285.4 0 0)
(285.417 0 0)
(285.431 0 0)
(285.428 0 0)
(285.359 0 0)
(285.079 0 0)
(284.267 0 0)
(282.464 0 0)
(279.484 0 0)
(276.161 0 0)
(274.147 0 0)
)
;

boundaryField
{
    sides
    {
        type            zeroGradient;
    }
    empty
    {
        type            empty;
    }
}


// ************************************************************************* //
