/*--------------------------------*- C++ -*----------------------------------*\
| =========                 |                                                 |
| \\      /  F ield         | OpenFOAM: The Open Source CFD Toolbox           |
|  \\    /   O peration     | Version:  2312                                  |
|   \\  /    A nd           | Website:  www.openfoam.com                      |
|    \\/     M anipulation  |                                                 |
\*---------------------------------------------------------------------------*/
FoamFile
{
    version     2.0;
    format      ascii;
    arch        "LSB;label=32;scalar=64";
    class       volVectorField;
    location    "0.01";
    object      U;
}
// * * * * * * * * * * * * * * * * * * * * * * * * * * * * * * * * * * * * * //

dimensions      [0 1 -1 0 0 0 0];

internalField   nonuniform List<vector> 
100
(
(0.238061 0 0)
(0.386414 0 0)
(0.61056 0 0)
(0.93916 0 0)
(1.40666 0 0)
(2.05237 0 0)
(2.91866 0 0)
(4.04857 0 0)
(5.48296 0 0)
(7.25771 0 0)
(9.40136 0 0)
(11.9335 0 0)
(14.8642 0 0)
(18.1942 0 0)
(21.9159 0 0)
(26.015 0 0)
(30.472 0 0)
(35.2638 0 0)
(40.3657 0 0)
(45.7519 0 0)
(51.3972 0 0)
(57.2771 0 0)
(63.3685 0 0)
(69.65 0 0)
(76.1019 0 0)
(82.7063 0 0)
(89.4467 0 0)
(96.3084 0 0)
(103.278 0 0)
(110.343 0 0)
(117.493 0 0)
(124.716 0 0)
(132.004 0 0)
(139.347 0 0)
(146.737 0 0)
(154.163 0 0)
(161.618 0 0)
(169.092 0 0)
(176.574 0 0)
(184.054 0 0)
(191.519 0 0)
(198.955 0 0)
(206.343 0 0)
(213.664 0 0)
(220.892 0 0)
(227.997 0 0)
(234.94 0 0)
(241.674 0 0)
(248.145 0 0)
(254.284 0 0)
(260.014 0 0)
(265.253 0 0)
(269.916 0 0)
(273.931 0 0)
(277.255 0 0)
(279.88 0 0)
(281.849 0 0)
(283.244 0 0)
(284.179 0 0)
(284.77 0 0)
(285.125 0 0)
(285.327 0 0)
(285.439 0 0)
(285.498 0 0)
(285.53 0 0)
(285.546 0 0)
(285.554 0 0)
(285.559 0 0)
(285.561 0 0)
(285.563 0 0)
(285.564 0 0)
(285.565 0 0)
(285.566 0 0)
(285.568 0 0)
(285.57 0 0)
(285.573 0 0)
(285.576 0 0)
(285.581 0 0)
(285.585 0 0)
(285.591 0 0)
(285.597 0 0)
(285.604 0 0)
(285.612 0 0)
(285.62 0 0)
(285.63 0 0)
(285.641 0 0)
(285.653 0 0)
(285.666 0 0)
(285.68 0 0)
(285.696 0 0)
(285.712 0 0)
(285.725 0 0)
(285.721 0 0)
(285.648 0 0)
(285.358 0 0)
(284.528 0 0)
(282.703 0 0)
(279.715 0 0)
(276.415 0 0)
(274.445 0 0)
)
;

boundaryField
{
    sides
    {
        type            zeroGradient;
    }
    empty
    {
        type            empty;
    }
}


// ************************************************************************* //
