/*--------------------------------*- C++ -*----------------------------------*\
| =========                 |                                                 |
| \\      /  F ield         | OpenFOAM: The Open Source CFD Toolbox           |
|  \\    /   O peration     | Version:  2312                                  |
|   \\  /    A nd           | Website:  www.openfoam.com                      |
|    \\/     M anipulation  |                                                 |
\*---------------------------------------------------------------------------*/
FoamFile
{
    version     2.0;
    format      ascii;
    arch        "LSB;label=32;scalar=64";
    class       volVectorField;
    location    "0.01";
    object      U;
}
// * * * * * * * * * * * * * * * * * * * * * * * * * * * * * * * * * * * * * //

dimensions      [0 1 -1 0 0 0 0];

internalField   nonuniform List<vector> 
100
(
(205.679 0 0)
(211.523 0 0)
(217.965 0 0)
(224.495 0 0)
(231.059 0 0)
(237.651 0 0)
(244.268 0 0)
(250.909 0 0)
(257.572 0 0)
(264.257 0 0)
(270.963 0 0)
(277.688 0 0)
(284.43 0 0)
(291.19 0 0)
(297.965 0 0)
(304.754 0 0)
(311.557 0 0)
(318.372 0 0)
(325.197 0 0)
(332.032 0 0)
(338.874 0 0)
(345.721 0 0)
(352.572 0 0)
(359.424 0 0)
(366.275 0 0)
(373.122 0 0)
(379.961 0 0)
(386.788 0 0)
(393.6 0 0)
(400.39 0 0)
(407.154 0 0)
(413.884 0 0)
(420.573 0 0)
(427.213 0 0)
(433.792 0 0)
(440.299 0 0)
(446.722 0 0)
(453.045 0 0)
(459.25 0 0)
(465.319 0 0)
(471.228 0 0)
(476.953 0 0)
(482.467 0 0)
(487.74 0 0)
(492.74 0 0)
(497.435 0 0)
(501.793 0 0)
(505.784 0 0)
(509.383 0 0)
(512.57 0 0)
(515.338 0 0)
(517.689 0 0)
(519.637 0 0)
(521.21 0 0)
(522.444 0 0)
(523.384 0 0)
(524.079 0 0)
(524.574 0 0)
(524.916 0 0)
(525.143 0 0)
(525.286 0 0)
(525.372 0 0)
(525.419 0 0)
(525.441 0 0)
(525.447 0 0)
(525.445 0 0)
(525.437 0 0)
(525.426 0 0)
(525.414 0 0)
(525.4 0 0)
(525.383 0 0)
(525.36 0 0)
(525.326 0 0)
(525.269 0 0)
(525.172 0 0)
(525.012 0 0)
(524.755 0 0)
(524.358 0 0)
(523.779 0 0)
(522.98 0 0)
(521.937 0 0)
(520.66 0 0)
(519.191 0 0)
(517.605 0 0)
(516 0 0)
(514.478 0 0)
(513.123 0 0)
(511.991 0 0)
(511.102 0 0)
(510.444 0 0)
(509.984 0 0)
(509.678 0 0)
(509.482 0 0)
(509.36 0 0)
(509.282 0 0)
(509.229 0 0)
(509.189 0 0)
(509.156 0 0)
(509.127 0 0)
(509.098 0 0)
)
;

boundaryField
{
    sides
    {
        type            zeroGradient;
    }
    empty
    {
        type            empty;
    }
}


// ************************************************************************* //
