/*--------------------------------*- C++ -*----------------------------------*\
| =========                 |                                                 |
| \\      /  F ield         | OpenFOAM: The Open Source CFD Toolbox           |
|  \\    /   O peration     | Version:  2312                                  |
|   \\  /    A nd           | Website:  www.openfoam.com                      |
|    \\/     M anipulation  |                                                 |
\*---------------------------------------------------------------------------*/
FoamFile
{
    version     2.0;
    format      ascii;
    arch        "LSB;label=32;scalar=64";
    class       volScalarField;
    location    "0.01";
    object      p;
}
// * * * * * * * * * * * * * * * * * * * * * * * * * * * * * * * * * * * * * //

dimensions      [1 -1 -2 0 0 0 0];

internalField   nonuniform List<scalar> 
100
(
109940
109757
109504
109167
108730
108177
107495
106675
105711
104602
103351
101963
100448
98818
97085.4
95264.2
93368.2
91411.6
89406.6
87365
85297.6
83214.1
81123.2
79032.6
76948.8
74877.8
72824.5
70793.2
68787.5
66810.7
64865.4
62954.7
61079.6
59241.8
57442.7
55683.3
53964.8
52288.1
50653.9
49063.1
47516.5
46014.9
44559.9
43152.5
41793.7
40485.4
39229.8
38029.6
36888.4
35810.6
34801.5
33867.3
33015.2
32252.6
31586.5
31022.4
30561.4
30207.2
29948.3
29766.3
29644
29565.4
29517.3
29489.2
29473.6
29465.3
29461.2
29459.4
29458.8
29458.8
29459.2
29459.8
29460.5
29461.2
29461.9
29462.7
29463.4
29464.2
29465
29465.8
29466.6
29467.4
29468.3
29469.2
29470.1
29471.1
29472.1
29473.2
29474.4
29475.6
29477.1
29479.1
29483
29494.5
29529.4
29623.7
29828.2
30159.5
30524.1
30747.2
)
;

boundaryField
{
    sides
    {
        type            zeroGradient;
    }
    empty
    {
        type            empty;
    }
}


// ************************************************************************* //
