/*--------------------------------*- C++ -*----------------------------------*\
| =========                 |                                                 |
| \\      /  F ield         | OpenFOAM: The Open Source CFD Toolbox           |
|  \\    /   O peration     | Version:  2312                                  |
|   \\  /    A nd           | Website:  www.openfoam.com                      |
|    \\/     M anipulation  |                                                 |
\*---------------------------------------------------------------------------*/
FoamFile
{
    version     2.0;
    format      ascii;
    arch        "LSB;label=32;scalar=64";
    class       volScalarField;
    location    "0.01";
    object      rho;
}
// * * * * * * * * * * * * * * * * * * * * * * * * * * * * * * * * * * * * * //

dimensions      [1 -3 0 0 0 0 0];

internalField   nonuniform List<scalar> 
100
(
1.11327
1.11194
1.11011
1.10767
1.10449
1.10047
1.0955
1.08952
1.08246
1.07432
1.06509
1.05482
1.04356
1.03138
1.01837
1.00462
0.99022
0.975271
0.959852
0.944048
0.927933
0.911576
0.895041
0.878384
0.861654
0.844895
0.828147
0.811443
0.794814
0.778287
0.761885
0.745636
0.729553
0.71365
0.697944
0.682449
0.667177
0.652141
0.637353
0.622826
0.608572
0.594604
0.580945
0.567611
0.554618
0.541991
0.529761
0.517964
0.506645
0.495858
0.485667
0.476151
0.467394
0.459487
0.452516
0.446552
0.441616
0.437758
0.434862
0.432739
0.431208
0.430097
0.42926
0.428574
0.427945
0.427295
0.426555
0.425654
0.424505
0.423002
0.421004
0.418339
0.414806
0.410189
0.404286
0.397008
0.388357
0.378425
0.367425
0.355659
0.343486
0.331294
0.319451
0.30827
0.298003
0.288819
0.280809
0.273994
0.268339
0.263759
0.260143
0.257362
0.255289
0.253824
0.252944
0.25276
0.253487
0.255148
0.257115
0.258305
)
;

boundaryField
{
    sides
    {
        type            zeroGradient;
    }
    empty
    {
        type            empty;
    }
}


// ************************************************************************* //
