/*--------------------------------*- C++ -*----------------------------------*\
| =========                 |                                                 |
| \\      /  F ield         | OpenFOAM: The Open Source CFD Toolbox           |
|  \\    /   O peration     | Version:  2312                                  |
|   \\  /    A nd           | Website:  www.openfoam.com                      |
|    \\/     M anipulation  |                                                 |
\*---------------------------------------------------------------------------*/
FoamFile
{
    version     2.0;
    format      ascii;
    arch        "LSB;label=32;scalar=64";
    class       volScalarField;
    location    "0.01";
    object      T;
}
// * * * * * * * * * * * * * * * * * * * * * * * * * * * * * * * * * * * * * //

dimensions      [0 0 0 1 0 0 0];

internalField   nonuniform List<scalar> 
100
(
299.925
299.877
299.804
299.697
299.543
299.329
299.04
298.662
298.179
297.58
296.853
295.993
294.996
293.863
292.596
291.202
289.688
288.064
286.338
284.52
282.621
280.65
278.615
276.525
274.386
272.207
269.992
267.748
265.481
263.193
260.889
258.573
256.248
253.918
251.586
249.254
246.926
244.604
242.293
239.996
237.715
235.456
233.223
231.022
228.86
226.746
224.689
222.703
220.803
219.008
217.339
215.819
214.474
213.325
212.389
211.67
211.161
210.843
210.687
210.662
210.743
210.914
211.173
211.532
212.019
212.688
213.613
214.902
216.693
219.153
222.468
226.83
232.42
239.385
247.821
257.749
269.109
281.745
295.402
309.744
324.364
338.824
352.684
365.554
377.124
387.189
395.663
402.568
408.016
412.179
415.262
417.475
419.022
420.088
420.862
421.571
422.5
423.885
425.583
426.871
)
;

boundaryField
{
    sides
    {
        type            zeroGradient;
    }
    empty
    {
        type            empty;
    }
}


// ************************************************************************* //
