/*--------------------------------*- C++ -*----------------------------------*\
| =========                 |                                                 |
| \\      /  F ield         | OpenFOAM: The Open Source CFD Toolbox           |
|  \\    /   O peration     | Version:  2312                                  |
|   \\  /    A nd           | Website:  www.openfoam.com                      |
|    \\/     M anipulation  |                                                 |
\*---------------------------------------------------------------------------*/
FoamFile
{
    version     2.0;
    format      ascii;
    arch        "LSB;label=32;scalar=64";
    class       volScalarField;
    location    "0.01";
    object      T;
}
// * * * * * * * * * * * * * * * * * * * * * * * * * * * * * * * * * * * * * //

dimensions      [0 0 0 1 0 0 0];

internalField   nonuniform List<scalar> 
100
(
348.083
347.912
347.678
347.365
346.957
346.441
345.803
345.032
344.121
343.067
341.869
340.529
339.053
337.449
335.724
333.889
331.954
329.929
327.824
325.646
323.406
321.11
318.767
316.382
313.961
311.51
309.033
306.535
304.019
301.49
298.95
296.403
293.851
291.297
288.743
286.191
283.644
281.104
278.574
276.057
273.554
271.07
268.609
266.176
263.774
261.411
259.094
256.831
254.636
252.521
250.503
248.604
246.846
245.254
243.854
242.669
241.71
240.997
240.511
240.214
240.073
240.055
240.134
240.293
240.524
240.83
241.224
241.733
242.398
243.283
244.47
246.073
248.228
251.1
254.868
259.668
265.609
272.768
281.155
290.707
301.287
312.673
324.578
336.668
348.581
359.966
370.515
379.984
388.216
395.148
400.803
405.273
408.706
411.289
413.258
414.921
416.63
418.564
420.43
421.58
)
;

boundaryField
{
    sides
    {
        type            zeroGradient;
    }
    empty
    {
        type            empty;
    }
}


// ************************************************************************* //
