/*--------------------------------*- C++ -*----------------------------------*\
| =========                 |                                                 |
| \\      /  F ield         | OpenFOAM: The Open Source CFD Toolbox           |
|  \\    /   O peration     | Version:  2312                                  |
|   \\  /    A nd           | Website:  www.openfoam.com                      |
|    \\/     M anipulation  |                                                 |
\*---------------------------------------------------------------------------*/
FoamFile
{
    version     2.0;
    format      ascii;
    arch        "LSB;label=32;scalar=64";
    class       volScalarField;
    location    "0.01";
    object      thermo:e;
}
// * * * * * * * * * * * * * * * * * * * * * * * * * * * * * * * * * * * * * //

dimensions      [0 2 -2 0 0 0 0];

internalField   nonuniform List<scalar> 
100
(
246888
246770
246608
246392
246110
245753
245311
244778
244148
243419
242590
241663
240642
239531
238338
237068
235728
234326
232868
231360
229808
228217
226593
224940
223261
221562
219844
218111
216366
214610
212847
211079
209307
207533
205759
203986
202215
200450
198691
196940
195199
193470
191758
190064
188392
186746
185131
183555
182025
180551
179144
177820
176594
175484
174507
173680
173011
172513
172173
171966
171868
171855
171910
172021
172183
172396
172671
173026
173491
174108
174937
176054
177558
179561
182187
185531
189669
194652
200485
207123
214470
222368
230619
238991
247233
255102
262389
268925
274604
279384
283281
286361
288726
290505
291861
293006
294182
295514
296798
297589
)
;

boundaryField
{
    sides
    {
        type            zeroGradient;
    }
    empty
    {
        type            empty;
    }
}


// ************************************************************************* //
