/*--------------------------------*- C++ -*----------------------------------*\
| =========                 |                                                 |
| \\      /  F ield         | OpenFOAM: The Open Source CFD Toolbox           |
|  \\    /   O peration     | Version:  2212                                  |
|   \\  /    A nd           | Website:  www.openfoam.com                      |
|    \\/     M anipulation  |                                                 |
\*---------------------------------------------------------------------------*/
FoamFile
{
    version     2.0;
    format      ascii;
    arch        "LSB;label=32;scalar=64";
    class       volScalarField;
    location    "0.01";
    object      thermo:e;
}
// * * * * * * * * * * * * * * * * * * * * * * * * * * * * * * * * * * * * * //

dimensions      [0 2 -2 0 0 0 0];

internalField   nonuniform List<scalar> 
100
(
213524
213491
213441
213366
213259
213111
212910
212647
212312
211896
211392
210795
210102
209315
208436
207467
206416
205287
204087
202824
201504
200134
198719
197265
195778
194261
192720
191159
189580
187987
186382
184769
183149
181525
179899
178273
176649
175030
173417
171814
170222
168645
167085
165547
164037
162559
161121
159732
158403
157148
155980
154917
153975
153171
152515
152012
151656
151433
151323
151306
151363
151483
151664
151915
152257
152724
153372
154275
155528
157249
159568
162618
166524
171387
177274
184195
192106
200895
210384
220337
230471
240483
250069
258963
266951
273896
279738
284497
288251
291118
293240
294764
295829
296563
297096
297583
298223
299176
300345
301231
)
;

boundaryField
{
    sides
    {
        type            zeroGradient;
    }
    empty
    {
        type            empty;
    }
}


// ************************************************************************* //
