/*--------------------------------*- C++ -*----------------------------------*\
| =========                 |                                                 |
| \\      /  F ield         | OpenFOAM: The Open Source CFD Toolbox           |
|  \\    /   O peration     | Version:  2312                                  |
|   \\  /    A nd           | Website:  www.openfoam.com                      |
|    \\/     M anipulation  |                                                 |
\*---------------------------------------------------------------------------*/
FoamFile
{
    version     2.0;
    format      ascii;
    arch        "LSB;label=32;scalar=64";
    class       volVectorField;
    location    "0.01";
    object      U;
}
// * * * * * * * * * * * * * * * * * * * * * * * * * * * * * * * * * * * * * //

dimensions      [0 1 -1 0 0 0 0];

internalField   nonuniform List<vector> 
100
(
(0.21118 0 0)
(0.345557 0 0)
(0.550106 0 0)
(0.852376 0 0)
(1.28577 0 0)
(1.88889 0 0)
(2.70387 0 0)
(3.77415 0 0)
(5.14155 0 0)
(6.84348 0 0)
(8.91036 0 0)
(11.3639 0 0)
(14.2161 0 0)
(17.4695 0 0)
(21.1181 0 0)
(25.1486 0 0)
(29.5422 0 0)
(34.2763 0 0)
(39.3261 0 0)
(44.6659 0 0)
(50.2701 0 0)
(56.1139 0 0)
(62.1739 0 0)
(68.4283 0 0)
(74.857 0 0)
(81.4419 0 0)
(88.1651 0 0)
(95.0104 0 0)
(101.966 0 0)
(109.019 0 0)
(116.159 0 0)
(123.374 0 0)
(130.656 0 0)
(137.994 0 0)
(145.38 0 0)
(152.805 0 0)
(160.26 0 0)
(167.735 0 0)
(175.217 0 0)
(182.697 0 0)
(190.163 0 0)
(197.601 0 0)
(204.993 0 0)
(212.318 0 0)
(219.552 0 0)
(226.662 0 0)
(233.611 0 0)
(240.352 0 0)
(246.827 0 0)
(252.967 0 0)
(258.694 0 0)
(263.927 0 0)
(268.579 0 0)
(272.58 0 0)
(275.885 0 0)
(278.489 0 0)
(280.438 0 0)
(281.817 0 0)
(282.74 0 0)
(283.324 0 0)
(283.676 0 0)
(283.879 0 0)
(283.992 0 0)
(284.052 0 0)
(284.085 0 0)
(284.101 0 0)
(284.11 0 0)
(284.113 0 0)
(284.115 0 0)
(284.116 0 0)
(284.116 0 0)
(284.116 0 0)
(284.117 0 0)
(284.118 0 0)
(284.119 0 0)
(284.122 0 0)
(284.124 0 0)
(284.128 0 0)
(284.132 0 0)
(284.138 0 0)
(284.144 0 0)
(284.15 0 0)
(284.158 0 0)
(284.167 0 0)
(284.176 0 0)
(284.187 0 0)
(284.199 0 0)
(284.213 0 0)
(284.227 0 0)
(284.243 0 0)
(284.261 0 0)
(284.276 0 0)
(284.279 0 0)
(284.224 0 0)
(283.98 0 0)
(283.239 0 0)
(281.518 0 0)
(278.548 0 0)
(275.098 0 0)
(272.866 0 0)
)
;

boundaryField
{
    sides
    {
        type            zeroGradient;
    }
    empty
    {
        type            empty;
    }
}


// ************************************************************************* //
