/*--------------------------------*- C++ -*----------------------------------*\
| =========                 |                                                 |
| \\      /  F ield         | OpenFOAM: The Open Source CFD Toolbox           |
|  \\    /   O peration     | Version:  2312                                  |
|   \\  /    A nd           | Website:  www.openfoam.com                      |
|    \\/     M anipulation  |                                                 |
\*---------------------------------------------------------------------------*/
FoamFile
{
    version     2.0;
    format      ascii;
    arch        "LSB;label=32;scalar=64";
    class       volVectorField;
    location    "0.01";
    object      U;
}
// * * * * * * * * * * * * * * * * * * * * * * * * * * * * * * * * * * * * * //

dimensions      [0 1 -1 0 0 0 0];

internalField   nonuniform List<vector> 
100
(
(0.910799 0 0)
(1.35525 0 0)
(1.96656 0 0)
(2.78485 0 0)
(3.85109 0 0)
(5.20484 0 0)
(6.88167 0 0)
(8.91091 0 0)
(11.314 0 0)
(14.1036 0 0)
(17.2836 0 0)
(20.8498 0 0)
(24.7912 0 0)
(29.0913 0 0)
(33.7296 0 0)
(38.6835 0 0)
(43.928 0 0)
(49.4383 0 0)
(55.1916 0 0)
(61.1656 0 0)
(67.3392 0 0)
(73.6926 0 0)
(80.2079 0 0)
(86.8688 0 0)
(93.6605 0 0)
(100.57 0 0)
(107.584 0 0)
(114.693 0 0)
(121.887 0 0)
(129.156 0 0)
(136.492 0 0)
(143.885 0 0)
(151.33 0 0)
(158.82 0 0)
(166.35 0 0)
(173.911 0 0)
(181.499 0 0)
(189.104 0 0)
(196.721 0 0)
(204.341 0 0)
(211.956 0 0)
(219.554 0 0)
(227.121 0 0)
(234.643 0 0)
(242.104 0 0)
(249.484 0 0)
(256.757 0 0)
(263.889 0 0)
(270.841 0 0)
(277.565 0 0)
(284.001 0 0)
(290.079 0 0)
(295.722 0 0)
(300.846 0 0)
(305.369 0 0)
(309.229 0 0)
(312.376 0 0)
(314.792 0 0)
(316.56 0 0)
(317.8 0 0)
(318.63 0 0)
(319.161 0 0)
(319.486 0 0)
(319.675 0 0)
(319.782 0 0)
(319.839 0 0)
(319.869 0 0)
(319.885 0 0)
(319.892 0 0)
(319.896 0 0)
(319.898 0 0)
(319.899 0 0)
(319.899 0 0)
(319.9 0 0)
(319.902 0 0)
(319.904 0 0)
(319.906 0 0)
(319.909 0 0)
(319.912 0 0)
(319.916 0 0)
(319.921 0 0)
(319.926 0 0)
(319.932 0 0)
(319.938 0 0)
(319.946 0 0)
(319.954 0 0)
(319.962 0 0)
(319.972 0 0)
(319.983 0 0)
(319.994 0 0)
(320.006 0 0)
(320.013 0 0)
(319.995 0 0)
(319.884 0 0)
(319.487 0 0)
(318.414 0 0)
(316.211 0 0)
(312.93 0 0)
(309.692 0 0)
(308.088 0 0)
)
;

boundaryField
{
    sides
    {
        type            zeroGradient;
    }
    empty
    {
        type            empty;
    }
}


// ************************************************************************* //
