/*--------------------------------*- C++ -*----------------------------------*\
| =========                 |                                                 |
| \\      /  F ield         | OpenFOAM: The Open Source CFD Toolbox           |
|  \\    /   O peration     | Version:  2312                                  |
|   \\  /    A nd           | Website:  www.openfoam.com                      |
|    \\/     M anipulation  |                                                 |
\*---------------------------------------------------------------------------*/
FoamFile
{
    version     2.0;
    format      ascii;
    arch        "LSB;label=32;scalar=64";
    class       volScalarField;
    location    "0.04";
    object      p;
}
// * * * * * * * * * * * * * * * * * * * * * * * * * * * * * * * * * * * * * //

dimensions      [1 -1 -2 0 0 0 0];

internalField   nonuniform List<scalar> 
100
(
38103.8
38149.3
37621.5
37621.9
37143.8
37074.8
36679
36527.8
36205.8
35995.1
35716.7
35476.3
35215.8
34964.9
34709.6
34456.1
34201.9
33948.1
33694.6
33441.2
33188.6
32936
32685
32433.2
32185.3
31933.2
31691.5
31435.4
31206.7
30938.6
30735.1
30441.2
30280.5
29943.4
29844.1
29450.6
29421.3
28974.8
29002.4
28532.1
28577.4
28136.4
28142.5
27795.3
27700.7
27513
27257.2
27294.8
26816.2
27147.2
26384.5
27069.5
25981.3
27042.8
25643.8
27028.7
25418.7
26981.6
25340.8
26872
25410.3
26705.4
25585.2
26521.6
25797
26372.1
25984.4
26289.1
26120.3
26271.9
26212.4
26298.8
26284.6
26350.7
26360.1
26427.2
26465.5
26562.3
26671.5
26887.3
27222.4
27814.9
28714.5
29987.3
31494.3
33062.3
34437.4
35530.7
36288.1
36804.4
37114.6
37324.1
37438.8
37530.8
37578.1
37631.6
37658.8
37700.4
37723.3
37757.5
)
;

boundaryField
{
    sides
    {
        type            zeroGradient;
    }
    empty
    {
        type            empty;
    }
}


// ************************************************************************* //
