/*--------------------------------*- C++ -*----------------------------------*\
| =========                 |                                                 |
| \\      /  F ield         | OpenFOAM: The Open Source CFD Toolbox           |
|  \\    /   O peration     | Version:  2312                                  |
|   \\  /    A nd           | Website:  www.openfoam.com                      |
|    \\/     M anipulation  |                                                 |
\*---------------------------------------------------------------------------*/
FoamFile
{
    version     2.0;
    format      ascii;
    arch        "LSB;label=32;scalar=64";
    class       volScalarField;
    location    "0.04";
    object      rho;
}
// * * * * * * * * * * * * * * * * * * * * * * * * * * * * * * * * * * * * * //

dimensions      [1 -3 0 0 0 0 0];

internalField   nonuniform List<scalar> 
100
(
0.546738
0.543455
0.540242
0.537251
0.534344
0.531807
0.529198
0.52697
0.524634
0.522569
0.520442
0.518454
0.516453
0.514509
0.512571
0.510655
0.508747
0.506852
0.504966
0.503091
0.501229
0.499383
0.497554
0.49575
0.493967
0.492221
0.490493
0.488819
0.487139
0.485543
0.483885
0.482361
0.480683
0.479208
0.477473
0.475998
0.474201
0.472652
0.470835
0.469135
0.467368
0.465473
0.463821
0.461743
0.460259
0.45805
0.456792
0.454504
0.45355
0.45123
0.450646
0.448378
0.448141
0.446107
0.446058
0.444528
0.444406
0.443644
0.44321
0.443329
0.442514
0.443367
0.442334
0.443556
0.442609
0.443794
0.443188
0.444089
0.443893
0.444498
0.444608
0.44505
0.445333
0.445765
0.446181
0.44675
0.447443
0.448472
0.450033
0.452647
0.45709
0.464495
0.475829
0.491114
0.508798
0.526314
0.541353
0.552801
0.56075
0.565925
0.569165
0.571166
0.572422
0.573245
0.573815
0.574249
0.574611
0.574942
0.575251
0.575465
)
;

boundaryField
{
    sides
    {
        type            zeroGradient;
    }
    empty
    {
        type            empty;
    }
}


// ************************************************************************* //
