/*--------------------------------*- C++ -*----------------------------------*\
| =========                 |                                                 |
| \\      /  F ield         | OpenFOAM: The Open Source CFD Toolbox           |
|  \\    /   O peration     | Version:  2312                                  |
|   \\  /    A nd           | Website:  www.openfoam.com                      |
|    \\/     M anipulation  |                                                 |
\*---------------------------------------------------------------------------*/
FoamFile
{
    version     2.0;
    format      ascii;
    arch        "LSB;label=32;scalar=64";
    class       volVectorField;
    location    "0.04";
    object      U;
}
// * * * * * * * * * * * * * * * * * * * * * * * * * * * * * * * * * * * * * //

dimensions      [0 1 -1 0 0 0 0];

internalField   nonuniform List<vector> 
100
(
(153.295 0 0)
(155.627 0 0)
(158.081 0 0)
(160.417 0 0)
(162.934 0 0)
(165.199 0 0)
(167.707 0 0)
(169.962 0 0)
(172.404 0 0)
(174.679 0 0)
(177.045 0 0)
(179.331 0 0)
(181.642 0 0)
(183.92 0 0)
(186.196 0 0)
(188.454 0 0)
(190.703 0 0)
(192.94 0 0)
(195.166 0 0)
(197.38 0 0)
(199.584 0 0)
(201.777 0 0)
(203.961 0 0)
(206.131 0 0)
(208.296 0 0)
(210.44 0 0)
(212.59 0 0)
(214.7 0 0)
(216.84 0 0)
(218.903 0 0)
(221.04 0 0)
(223.041 0 0)
(225.178 0 0)
(227.111 0 0)
(229.238 0 0)
(231.116 0 0)
(233.197 0 0)
(235.056 0 0)
(237.036 0 0)
(238.919 0 0)
(240.746 0 0)
(242.677 0 0)
(244.317 0 0)
(246.293 0 0)
(247.73 0 0)
(249.731 0 0)
(250.944 0 0)
(252.954 0 0)
(253.911 0 0)
(255.912 0 0)
(256.598 0 0)
(258.528 0 0)
(258.997 0 0)
(260.72 0 0)
(261.109 0 0)
(262.439 0 0)
(262.933 0 0)
(263.708 0 0)
(264.448 0 0)
(264.631 0 0)
(265.626 0 0)
(265.355 0 0)
(266.465 0 0)
(266.005 0 0)
(267.02 0 0)
(266.634 0 0)
(267.4 0 0)
(267.224 0 0)
(267.724 0 0)
(267.743 0 0)
(268.058 0 0)
(268.176 0 0)
(268.391 0 0)
(268.513 0 0)
(268.643 0 0)
(268.67 0 0)
(268.606 0 0)
(268.306 0 0)
(267.623 0 0)
(266.199 0 0)
(263.533 0 0)
(258.969 0 0)
(252.087 0 0)
(243.131 0 0)
(233.213 0 0)
(223.823 0 0)
(216.109 0 0)
(210.501 0 0)
(206.823 0 0)
(204.621 0 0)
(203.426 0 0)
(202.871 0 0)
(202.698 0 0)
(202.744 0 0)
(202.917 0 0)
(203.156 0 0)
(203.433 0 0)
(203.724 0 0)
(204.027 0 0)
(204.269 0 0)
)
;

boundaryField
{
    sides
    {
        type            mywaveTransmissive;
        gamma           1.4;
        value           nonuniform List<vector> 2((204.382 0 0) (152.98 0 0));
    }
    empty
    {
        type            empty;
    }
}


// ************************************************************************* //
