/*--------------------------------*- C++ -*----------------------------------*\
| =========                 |                                                 |
| \\      /  F ield         | OpenFOAM: The Open Source CFD Toolbox           |
|  \\    /   O peration     | Version:  2312                                  |
|   \\  /    A nd           | Website:  www.openfoam.com                      |
|    \\/     M anipulation  |                                                 |
\*---------------------------------------------------------------------------*/
FoamFile
{
    version     2.0;
    format      ascii;
    arch        "LSB;label=32;scalar=64";
    class       volScalarField;
    location    "0.066";
    object      p;
}
// * * * * * * * * * * * * * * * * * * * * * * * * * * * * * * * * * * * * * //

dimensions      [1 -1 -2 0 0 0 0];

internalField   nonuniform List<scalar> 
100
(
27794.9
27593.4
27518.2
27347.5
27128.3
27137.9
26699
26967.5
26244.5
26819
25791.6
26663.5
25374.8
26468.2
25026
26208.7
24761.7
25880.6
24575.5
25502.6
24440.5
25108.6
24322.2
24732.4
24193
24395.3
24040.7
24102.8
23867.3
23849.4
23682.1
23626
23495.5
23425.2
23315.3
23242.7
23146.3
23077
22991.6
22928.2
22853
22797.1
22731.9
22684.5
22629.2
22590.9
22545.6
22516.4
22481
22460.9
22435.1
22424.4
22409.1
22409.9
22410.3
22433.7
22471.8
22559.6
22711.6
22993.4
23455.5
24176.7
25159.5
26351.9
27589.6
28726.1
29633
30303.2
30746.6
31041.3
31216
31334.4
31399.4
31451.7
31478.1
31507.5
31521.4
31543.4
31553.8
31573.7
31583.4
31603
31612.8
31632.6
31642.3
31662.4
31671.6
31691.9
31700.3
31720.6
31728.5
31748.2
31756.5
31774.6
31785.1
31799.6
31814.9
31822.6
31845
31838.3
)
;

boundaryField
{
    sides
    {
        type            zeroGradient;
    }
    empty
    {
        type            empty;
    }
}


// ************************************************************************* //
