/*--------------------------------*- C++ -*----------------------------------*\
| =========                 |                                                 |
| \\      /  F ield         | OpenFOAM: The Open Source CFD Toolbox           |
|  \\    /   O peration     | Version:  2312                                  |
|   \\  /    A nd           | Website:  www.openfoam.com                      |
|    \\/     M anipulation  |                                                 |
\*---------------------------------------------------------------------------*/
FoamFile
{
    version     2.0;
    format      ascii;
    arch        "LSB;label=32;scalar=64";
    class       volScalarField;
    location    "0.066";
    object      T;
}
// * * * * * * * * * * * * * * * * * * * * * * * * * * * * * * * * * * * * * //

dimensions      [0 0 0 1 0 0 0];

internalField   nonuniform List<scalar> 
100
(
229.958
228.254
227.743
226.645
224.927
225.478
221.932
224.815
218.92
224.507
216.108
224.273
213.749
223.785
212.066
222.792
211.146
221.23
210.887
219.246
211.02
217.117
211.228
215.116
211.273
213.407
211.058
212.024
210.611
210.914
210.021
210.004
209.382
209.241
208.769
208.603
208.233
208.091
207.808
207.716
207.517
207.488
207.371
207.41
207.369
207.471
207.495
207.648
207.722
207.91
208.013
208.218
208.335
208.541
208.665
208.882
209.046
209.351
209.711
210.383
211.38
213.005
215.195
217.955
220.794
223.444
225.467
226.941
227.772
228.268
228.386
228.404
228.216
228.037
227.726
227.463
227.098
226.789
226.39
226.047
225.618
225.244
224.786
224.384
223.898
223.475
222.967
222.536
222.022
221.597
221.098
220.697
220.238
219.871
219.483
219.149
218.86
218.545
218.38
218.072
)
;

boundaryField
{
    sides
    {
        type            zeroGradient;
    }
    empty
    {
        type            empty;
    }
}


// ************************************************************************* //
