/*--------------------------------*- C++ -*----------------------------------*\
| =========                 |                                                 |
| \\      /  F ield         | OpenFOAM: The Open Source CFD Toolbox           |
|  \\    /   O peration     | Version:  2312                                  |
|   \\  /    A nd           | Website:  www.openfoam.com                      |
|    \\/     M anipulation  |                                                 |
\*---------------------------------------------------------------------------*/
FoamFile
{
    version     2.0;
    format      ascii;
    arch        "LSB;label=32;scalar=64";
    class       volScalarField;
    location    "0.066";
    object      thermo:e;
}
// * * * * * * * * * * * * * * * * * * * * * * * * * * * * * * * * * * * * * //

dimensions      [0 2 -2 0 0 0 0];

internalField   nonuniform List<scalar> 
100
(
165386
164160
163793
163003
161768
162164
159614
161687
157448
161466
155425
161297
153728
160946
152518
160232
151856
159109
151670
157682
151765
156151
151915
154711
151948
153482
151793
152487
151472
151689
151047
151035
150588
150486
150147
150027
149761
149659
149456
149389
149246
149225
149141
149169
149140
149213
149230
149341
149393
149529
149603
149750
149834
149983
150072
150228
150346
150565
150824
151307
152024
153193
154768
156753
158795
160701
162156
163216
163814
164171
164256
164268
164133
164004
163781
163591
163329
163107
162819
162573
162264
161996
161666
161377
161027
160723
160358
160048
159678
159373
159013
158725
158395
158131
157852
157612
157404
157178
157059
156837
)
;

boundaryField
{
    sides
    {
        type            zeroGradient;
    }
    empty
    {
        type            empty;
    }
}


// ************************************************************************* //
