/*--------------------------------*- C++ -*----------------------------------*\
| =========                 |                                                 |
| \\      /  F ield         | OpenFOAM: The Open Source CFD Toolbox           |
|  \\    /   O peration     | Version:  2312                                  |
|   \\  /    A nd           | Website:  www.openfoam.com                      |
|    \\/     M anipulation  |                                                 |
\*---------------------------------------------------------------------------*/
FoamFile
{
    version     2.0;
    format      ascii;
    arch        "LSB;label=32;scalar=64";
    class       volVectorField;
    location    "0.066";
    object      U;
}
// * * * * * * * * * * * * * * * * * * * * * * * * * * * * * * * * * * * * * //

dimensions      [0 1 -1 0 0 0 0];

internalField   nonuniform List<vector> 
100
(
(188.796 0 0)
(189.633 0 0)
(190.461 0 0)
(191.777 0 0)
(192.442 0 0)
(193.909 0 0)
(194.401 0 0)
(195.993 0 0)
(196.384 0 0)
(198.02 0 0)
(198.429 0 0)
(199.981 0 0)
(200.554 0 0)
(201.886 0 0)
(202.743 0 0)
(203.769 0 0)
(204.956 0 0)
(205.678 0 0)
(207.138 0 0)
(207.652 0 0)
(209.252 0 0)
(209.701 0 0)
(211.29 0 0)
(211.801 0 0)
(213.271 0 0)
(213.909 0 0)
(215.22 0 0)
(215.985 0 0)
(217.15 0 0)
(218.001 0 0)
(219.056 0 0)
(219.944 0 0)
(220.919 0 0)
(221.806 0 0)
(222.718 0 0)
(223.576 0 0)
(224.43 0 0)
(225.243 0 0)
(226.038 0 0)
(226.795 0 0)
(227.525 0 0)
(228.217 0 0)
(228.879 0 0)
(229.501 0 0)
(230.09 0 0)
(230.64 0 0)
(231.154 0 0)
(231.63 0 0)
(232.07 0 0)
(232.471 0 0)
(232.836 0 0)
(233.159 0 0)
(233.437 0 0)
(233.653 0 0)
(233.781 0 0)
(233.763 0 0)
(233.496 0 0)
(232.787 0 0)
(231.319 0 0)
(228.622 0 0)
(224.154 0 0)
(217.552 0 0)
(209.008 0 0)
(199.433 0 0)
(190.128 0 0)
(182.212 0 0)
(176.206 0 0)
(172.071 0 0)
(169.436 0 0)
(167.87 0 0)
(167.004 0 0)
(166.573 0 0)
(166.405 0 0)
(166.394 0 0)
(166.476 0 0)
(166.613 0 0)
(166.783 0 0)
(166.973 0 0)
(167.177 0 0)
(167.39 0 0)
(167.61 0 0)
(167.835 0 0)
(168.067 0 0)
(168.304 0 0)
(168.546 0 0)
(168.796 0 0)
(169.052 0 0)
(169.316 0 0)
(169.587 0 0)
(169.867 0 0)
(170.155 0 0)
(170.451 0 0)
(170.76 0 0)
(171.072 0 0)
(171.406 0 0)
(171.736 0 0)
(172.099 0 0)
(172.452 0 0)
(172.854 0 0)
(173.19 0 0)
)
;

boundaryField
{
    sides
    {
        type            mywaveTransmissive;
        gamma           1.4;
        value           nonuniform List<vector> 2((173.289 0 0) (188.083 0 0));
    }
    empty
    {
        type            empty;
    }
}


// ************************************************************************* //
