/*--------------------------------*- C++ -*----------------------------------*\
| =========                 |                                                 |
| \\      /  F ield         | OpenFOAM: The Open Source CFD Toolbox           |
|  \\    /   O peration     | Version:  2312                                  |
|   \\  /    A nd           | Website:  www.openfoam.com                      |
|    \\/     M anipulation  |                                                 |
\*---------------------------------------------------------------------------*/
FoamFile
{
    version     2.0;
    format      ascii;
    arch        "LSB;label=32;scalar=64";
    class       volScalarField;
    location    "0.078";
    object      p;
}
// * * * * * * * * * * * * * * * * * * * * * * * * * * * * * * * * * * * * * //

dimensions      [1 -1 -2 0 0 0 0];

internalField   nonuniform List<scalar> 
100
(
19496.1
20702.5
19646.1
20779.9
19998.4
20846.2
20334
20916
20629
21005
20876.8
21114.5
21082.2
21237.4
21254.7
21364.6
21403.3
21488.7
21533.9
21605.2
21650.1
21711.9
21753.5
21807.8
21844.9
21892.7
21925
21966.7
21994.1
22030.4
22053.3
22084.4
22103.3
22130
22145.3
22168.2
22180.8
22200.7
22211.8
22230.4
22242.3
22263.9
22284.1
22322
22375.3
22475.1
22641.6
22936.3
23413
24142.9
25127
26304.8
27516
28615.3
29484.2
30115.9
30525.3
30786.6
30930.7
31017.7
31052.1
31072.3
31066.6
31062.3
31042
31028.6
31002.9
30985.9
30957.8
30939.4
30910.4
30891.5
30861.9
30842.9
30813.2
30793.7
30764.6
30743.8
30716.2
30692.4
30667.7
30638.6
30618.4
30581
30567.1
30518.4
30512.3
30450.3
30452.6
30376.8
30387.2
30299.5
30316.3
30220.9
30241.7
30144
30166.5
30071.9
30094.5
30007.2
)
;

boundaryField
{
    sides
    {
        type            zeroGradient;
    }
    empty
    {
        type            empty;
    }
}


// ************************************************************************* //
