/*--------------------------------*- C++ -*----------------------------------*\
| =========                 |                                                 |
| \\      /  F ield         | OpenFOAM: The Open Source CFD Toolbox           |
|  \\    /   O peration     | Version:  2312                                  |
|   \\  /    A nd           | Website:  www.openfoam.com                      |
|    \\/     M anipulation  |                                                 |
\*---------------------------------------------------------------------------*/
FoamFile
{
    version     2.0;
    format      ascii;
    arch        "LSB;label=32;scalar=64";
    class       volScalarField;
    location    "0.078";
    object      rho;
}
// * * * * * * * * * * * * * * * * * * * * * * * * * * * * * * * * * * * * * //

dimensions      [1 -3 0 0 0 0 0];

internalField   nonuniform List<scalar> 
100
(
0.435187
0.422664
0.411894
0.402974
0.393872
0.386689
0.379302
0.373706
0.368034
0.363845
0.359756
0.356803
0.354092
0.352215
0.350653
0.349696
0.34906
0.348861
0.348946
0.349341
0.349957
0.350785
0.351763
0.35287
0.354061
0.355311
0.356587
0.357868
0.359129
0.360355
0.361531
0.362649
0.363699
0.36468
0.365589
0.36643
0.367204
0.36792
0.368582
0.369207
0.369806
0.37041
0.371059
0.371834
0.37287
0.374415
0.376875
0.380873
0.387181
0.396424
0.408555
0.422502
0.436464
0.448716
0.458312
0.465164
0.469733
0.472633
0.474407
0.475447
0.476012
0.47626
0.476281
0.476131
0.47584
0.475429
0.474914
0.474309
0.473629
0.47289
0.472112
0.471312
0.470511
0.469726
0.468975
0.468273
0.467632
0.467064
0.466569
0.46616
0.465823
0.465575
0.465385
0.465281
0.465215
0.465227
0.465255
0.465352
0.465448
0.465606
0.465755
0.465956
0.466154
0.466397
0.466651
0.466946
0.467272
0.467636
0.468052
0.468512
)
;

boundaryField
{
    sides
    {
        type            zeroGradient;
    }
    empty
    {
        type            empty;
    }
}


// ************************************************************************* //
