/*--------------------------------*- C++ -*----------------------------------*\
| =========                 |                                                 |
| \\      /  F ield         | OpenFOAM: The Open Source CFD Toolbox           |
|  \\    /   O peration     | Version:  2312                                  |
|   \\  /    A nd           | Website:  www.openfoam.com                      |
|    \\/     M anipulation  |                                                 |
\*---------------------------------------------------------------------------*/
FoamFile
{
    version     2.0;
    format      ascii;
    arch        "LSB;label=32;scalar=64";
    class       volScalarField;
    location    "0.078";
    object      T;
}
// * * * * * * * * * * * * * * * * * * * * * * * * * * * * * * * * * * * * * //

dimensions      [0 0 0 1 0 0 0];

internalField   nonuniform List<scalar> 
100
(
155.717
170.251
165.788
179.238
176.483
187.382
186.338
194.541
194.829
200.664
201.706
205.691
206.949
209.584
210.689
212.357
213.129
214.102
214.501
214.967
215.035
215.14
214.952
214.813
214.455
214.167
213.716
213.356
212.873
212.497
212.027
211.672
211.241
210.927
210.548
210.282
209.958
209.738
209.465
209.287
209.059
208.921
208.744
208.664
208.581
208.647
208.821
209.318
210.187
211.686
213.773
216.406
219.13
221.661
223.61
225.037
225.877
226.413
226.622
226.762
226.744
226.774
226.722
226.762
226.753
226.851
226.908
227.073
227.193
227.413
227.574
227.821
227.99
228.23
228.376
228.574
228.671
228.794
228.831
228.854
228.836
228.74
228.683
228.454
228.383
228.013
227.955
227.443
227.414
226.771
226.776
226.024
226.053
225.224
225.256
224.387
224.398
223.52
223.489
222.622
)
;

boundaryField
{
    sides
    {
        type            zeroGradient;
    }
    empty
    {
        type            empty;
    }
}


// ************************************************************************* //
