/*--------------------------------*- C++ -*----------------------------------*\
| =========                 |                                                 |
| \\      /  F ield         | OpenFOAM: The Open Source CFD Toolbox           |
|  \\    /   O peration     | Version:  2312                                  |
|   \\  /    A nd           | Website:  www.openfoam.com                      |
|    \\/     M anipulation  |                                                 |
\*---------------------------------------------------------------------------*/
FoamFile
{
    version     2.0;
    format      ascii;
    arch        "LSB;label=32;scalar=64";
    class       volScalarField;
    location    "0.015";
    object      p;
}
// * * * * * * * * * * * * * * * * * * * * * * * * * * * * * * * * * * * * * //

dimensions      [1 -1 -2 0 0 0 0];

internalField   nonuniform List<scalar> 
100
(
87775
86783.5
85583.7
84389.1
83130.8
81843.5
80524.9
79182.4
77819.7
76441.2
75050.6
73651.8
72248.2
70843.2
69440.2
68041.9
66651.2
65270.3
63901.4
62546.3
61206.2
59883.7
58575.7
57294.6
56011.7
54797
53499.1
52422.9
51013.2
50186.6
48586
48001.5
46352.5
45747.5
44347.2
43517.3
42404.2
41455.5
40476.6
39535.8
38617.6
37724.7
36857.7
36017.7
35206.5
34426.4
33680
32970
32299.9
31673.7
31097
30575.4
30114.6
29718.4
29389
29127.1
28929.6
28787.9
28690.9
28629.1
28594.5
28577.4
28566.5
28555.1
28545.7
28545.2
28553.7
28561.5
28557.7
28543.3
28531.3
28534.8
28553.5
28571.8
28572
28551
28523.3
28509.4
28523.3
28556
28598.3
28598.4
28609.7
28506.1
28577.5
28366.5
28695.5
28416.3
29106.6
28951.8
29770.4
29844.2
30369
30486.9
30656.4
30694.9
30702.7
30736.7
30691.3
30874
)
;

boundaryField
{
    sides
    {
        type            zeroGradient;
    }
    empty
    {
        type            empty;
    }
}


// ************************************************************************* //
