/*--------------------------------*- C++ -*----------------------------------*\
| =========                 |                                                 |
| \\      /  F ield         | OpenFOAM: The Open Source CFD Toolbox           |
|  \\    /   O peration     | Version:  2312                                  |
|   \\  /    A nd           | Website:  www.openfoam.com                      |
|    \\/     M anipulation  |                                                 |
\*---------------------------------------------------------------------------*/
FoamFile
{
    version     2.0;
    format      ascii;
    arch        "LSB;label=32;scalar=64";
    class       volScalarField;
    location    "0.015";
    object      T;
}
// * * * * * * * * * * * * * * * * * * * * * * * * * * * * * * * * * * * * * //

dimensions      [0 0 0 1 0 0 0];

internalField   nonuniform List<scalar> 
100
(
291.183
289.401
287.686
286.367
285.069
283.796
282.494
281.16
279.79
278.387
276.953
275.49
274.002
272.492
270.962
269.416
267.855
266.282
264.699
263.109
261.51
259.912
258.297
256.715
255.038
253.587
251.639
250.686
247.938
248.102
244.092
245.342
240.884
241.701
238.472
237.811
235.824
234.434
232.842
231.304
229.781
228.282
226.802
225.334
223.885
222.472
221.104
219.785
218.513
217.29
216.137
215.083
214.15
213.338
212.642
212.07
211.635
211.319
211.09
210.956
210.952
211.038
211.065
210.931
210.755
210.796
211.147
211.54
211.567
211.133
210.656
210.72
211.485
212.43
212.734
212.007
210.741
210.014
210.715
212.78
215.243
216.287
215.399
211.519
208.488
204.283
207.436
209.794
224.321
236.691
260.992
282.61
309.915
334.174
357.337
376.519
391.797
403.885
411.343
419.108
)
;

boundaryField
{
    sides
    {
        type            zeroGradient;
    }
    empty
    {
        type            empty;
    }
}


// ************************************************************************* //
