/*--------------------------------*- C++ -*----------------------------------*\
| =========                 |                                                 |
| \\      /  F ield         | OpenFOAM: The Open Source CFD Toolbox           |
|  \\    /   O peration     | Version:  2312                                  |
|   \\  /    A nd           | Website:  www.openfoam.com                      |
|    \\/     M anipulation  |                                                 |
\*---------------------------------------------------------------------------*/
FoamFile
{
    version     2.0;
    format      ascii;
    arch        "LSB;label=32;scalar=64";
    class       volScalarField;
    location    "0.015";
    object      thermo:e;
}
// * * * * * * * * * * * * * * * * * * * * * * * * * * * * * * * * * * * * * //

dimensions      [0 2 -2 0 0 0 0];

internalField   nonuniform List<scalar> 
100
(
209419
208137
206904
205955
205022
204106
203169
202210
201225
200216
199184
198132
197062
195976
194876
193764
192641
191510
190372
189228
188078
186929
185767
184630
183424
182380
180979
180293
178317
178435
175551
176450
173244
173831
171509
171034
169604
168605
167460
166354
165258
164181
163116
162060
161018
160002
159018
158069
157154
156275
155446
154688
154017
153433
152932
152521
152208
151981
151816
151719
151717
151779
151798
151702
151575
151605
151857
152140
152159
151847
151504
151550
152100
152780
152998
152475
151565
151042
151547
153032
154803
155554
154915
152124
149945
146921
149188
150884
161331
170228
187705
203253
222891
240338
256997
270792
281781
290474
295838
301423
)
;

boundaryField
{
    sides
    {
        type            zeroGradient;
    }
    empty
    {
        type            empty;
    }
}


// ************************************************************************* //
