/*--------------------------------*- C++ -*----------------------------------*\
| =========                 |                                                 |
| \\      /  F ield         | OpenFOAM: The Open Source CFD Toolbox           |
|  \\    /   O peration     | Version:  2312                                  |
|   \\  /    A nd           | Website:  www.openfoam.com                      |
|    \\/     M anipulation  |                                                 |
\*---------------------------------------------------------------------------*/
FoamFile
{
    version     2.0;
    format      ascii;
    arch        "LSB;label=32;scalar=64";
    class       volVectorField;
    location    "0.015";
    object      U;
}
// * * * * * * * * * * * * * * * * * * * * * * * * * * * * * * * * * * * * * //

dimensions      [0 1 -1 0 0 0 0];

internalField   nonuniform List<vector> 
100
(
(25.7504 0 0)
(29.2158 0 0)
(33.1456 0 0)
(37.2357 0 0)
(41.5252 0 0)
(45.936 0 0)
(50.4528 0 0)
(55.0532 0 0)
(59.7241 0 0)
(64.4542 0 0)
(69.2349 0 0)
(74.0591 0 0)
(78.9214 0 0)
(83.8176 0 0)
(88.7447 0 0)
(93.7004 0 0)
(98.683 0 0)
(103.691 0 0)
(108.724 0 0)
(113.78 0 0)
(118.858 0 0)
(123.959 0 0)
(129.074 0 0)
(134.223 0 0)
(139.354 0 0)
(144.577 0 0)
(149.663 0 0)
(155.025 0 0)
(159.996 0 0)
(165.492 0 0)
(170.466 0 0)
(175.807 0 0)
(181.134 0 0)
(186.071 0 0)
(191.67 0 0)
(196.577 0 0)
(201.975 0 0)
(207.082 0 0)
(212.298 0 0)
(217.439 0 0)
(222.555 0 0)
(227.632 0 0)
(232.662 0 0)
(237.627 0 0)
(242.506 0 0)
(247.281 0 0)
(251.933 0 0)
(256.434 0 0)
(260.747 0 0)
(264.824 0 0)
(268.612 0 0)
(272.063 0 0)
(275.133 0 0)
(277.782 0 0)
(279.975 0 0)
(281.703 0 0)
(282.999 0 0)
(283.92 0 0)
(284.523 0 0)
(284.878 0 0)
(285.084 0 0)
(285.242 0 0)
(285.382 0 0)
(285.444 0 0)
(285.38 0 0)
(285.262 0 0)
(285.242 0 0)
(285.395 0 0)
(285.596 0 0)
(285.629 0 0)
(285.407 0 0)
(285.1 0 0)
(285.005 0 0)
(285.271 0 0)
(285.722 0 0)
(285.978 0 0)
(285.757 0 0)
(285.127 0 0)
(284.495 0 0)
(284.326 0 0)
(284.891 0 0)
(285.894 0 0)
(286.971 0 0)
(287.127 0 0)
(286.647 0 0)
(284.469 0 0)
(282.071 0 0)
(278.266 0 0)
(274.427 0 0)
(270.398 0 0)
(266.187 0 0)
(263.594 0 0)
(261.262 0 0)
(260.88 0 0)
(261.015 0 0)
(261.93 0 0)
(262.813 0 0)
(263.724 0 0)
(263.852 0 0)
(263.709 0 0)
)
;

boundaryField
{
    sides
    {
        type            mywaveTransmissive;
        gamma           1.4;
        value           nonuniform List<vector> 2((263.938 0 0) (24.2467 0 0));
    }
    empty
    {
        type            empty;
    }
}


// ************************************************************************* //
