/*--------------------------------*- C++ -*----------------------------------*\
| =========                 |                                                 |
| \\      /  F ield         | OpenFOAM: The Open Source CFD Toolbox           |
|  \\    /   O peration     | Version:  2312                                  |
|   \\  /    A nd           | Website:  www.openfoam.com                      |
|    \\/     M anipulation  |                                                 |
\*---------------------------------------------------------------------------*/
FoamFile
{
    version     2.0;
    format      ascii;
    arch        "LSB;label=32;scalar=64";
    class       volScalarField;
    location    "9e-05";
    object      p;
}
// * * * * * * * * * * * * * * * * * * * * * * * * * * * * * * * * * * * * * //

dimensions      [1 -1 -2 0 0 0 0];

internalField   nonuniform List<scalar> 
500
(
402182
402309
402387
402440
402480
402513
402540
402564
402586
402605
402623
402640
402655
402670
402684
402698
402711
402724
402736
402749
402761
402773
402785
402797
402808
402820
402832
402844
402855
402867
402879
402891
402904
402916
402928
402941
402954
402967
402980
402994
403008
403022
403036
403051
403065
403081
403096
403112
403128
403145
403162
403179
403197
403215
403234
403253
403272
403293
403313
403334
403356
403378
403401
403425
403449
403474
403500
403526
403553
403581
403610
403639
403670
403701
403734
403767
403801
403837
403873
403911
403950
403990
404031
404074
404118
404164
404211
404259
404310
404362
404415
404471
404528
404588
404649
404713
404779
404847
404918
404991
405067
405146
405228
405312
405400
405491
405585
405683
405785
405890
406000
406113
406231
406354
406481
406614
406751
406895
407043
407198
407359
407527
407701
407882
408071
408268
408472
408685
408907
409139
409380
409631
409893
410166
410451
410747
411057
411380
411717
412068
412435
412818
413218
413635
414071
414526
415002
415498
416017
416559
417125
417717
418335
418982
419658
420364
421103
421876
422684
423529
424413
425338
426306
427318
428378
429487
430647
431862
433134
434465
435859
437318
438847
440447
442124
443880
445720
447648
449668
451785
454003
456329
458766
461322
464001
466811
469759
472850
476093
479496
483067
486815
490749
494880
499217
503772
508557
513584
518866
524417
530253
536389
542842
549629
556769
564283
572191
580517
589283
598515
608240
618487
629285
640667
652666
665318
678658
692727
707562
723177
739618
756940
775183
794383
814563
835734
857874
880909
904679
928876
952949
975937
996212
1.01106e+06
1.01606e+06
1.00429e+06
965518
886421
754189
568548
363229
201833
124171
103843
100523
100067
100007
99998.8
99997.7
99997.6
99997.6
99997.6
99997.6
99997.6
99997.6
99997.6
99997.6
99997.6
99997.6
99997.6
99997.6
99997.6
99997.6
99997.6
99997.6
99997.6
99997.6
99997.6
99997.6
99997.6
99997.6
99997.6
99997.6
99997.6
99997.6
99997.6
99997.6
99997.6
99997.6
99997.6
99997.6
99997.6
99997.6
99997.6
99997.6
99997.6
99997.6
99997.6
99997.6
99997.6
99997.6
99997.6
99997.6
99997.6
99997.6
99997.6
99997.6
99997.6
99997.6
99997.6
99997.6
99997.6
99997.6
99997.6
99997.6
99997.6
99997.6
99997.6
99997.6
99997.6
99997.6
99997.6
99997.6
99997.6
99997.6
99997.6
99997.6
99997.6
99997.6
99997.6
99997.6
99997.6
99997.6
99997.6
99997.6
99997.6
99997.6
99997.6
99997.6
99997.6
99997.6
99997.6
99997.6
99997.6
99997.6
99997.6
99997.6
99997.6
99997.6
99997.6
99997.6
99997.6
99997.6
99997.6
99997.6
99997.6
99997.6
99997.6
99997.6
99997.6
99997.6
99997.6
99997.6
99997.6
99997.6
99997.6
99997.6
99997.6
99997.6
99997.6
99997.6
99997.6
99997.6
99997.6
99997.6
99997.6
99997.6
99997.6
99997.6
99997.6
99997.6
99997.6
99997.6
99997.6
99997.6
99997.6
99997.6
99997.6
99997.6
99997.6
99997.6
99997.6
99997.6
99997.6
99997.6
99997.6
99997.6
99997.6
99997.6
99997.6
99997.6
99997.6
99997.6
99997.6
99997.6
99997.6
99997.6
99997.6
99997.6
99997.6
99997.6
99997.6
99997.6
99997.6
99997.6
99997.6
99997.6
99997.6
99997.6
99997.6
99997.6
99997.6
99997.6
99997.6
99997.6
99997.6
99997.6
99997.6
99997.6
99997.6
99997.6
99997.6
99997.6
99997.6
99997.6
99997.6
99997.6
99997.6
99997.6
99997.6
99997.6
99997.6
99997.6
99997.6
99997.6
99997.6
99997.6
99997.6
99997.6
99997.6
99997.6
99997.6
99997.6
99997.6
99997.6
99997.6
99997.6
99997.6
99997.6
99997.6
99997.6
99997.6
99997.6
99997.6
99997.6
99997.6
99997.6
99997.6
99997.6
99997.6
99997.6
99997.6
99997.6
99997.6
99997.6
99997.6
99997.6
99997.6
99997.6
99997.6
99997.6
99997.6
99997.6
99997.6
99997.6
99997.6
99997.6
99997.6
99997.6
99997.6
99997.6
99997.6
99997.6
99997.6
99997.6
99997.6
99997.6
99997.6
99997.6
99997.6
99997.6
99997.6
99997.6
99997.6
99997.6
99997.6
99997.6
99997.6
99997.6
99997.6
)
;

boundaryField
{
    wedge0
    {
        type            wedge;
    }
    wedge1
    {
        type            wedge;
    }
    wedge2
    {
        type            wedge;
    }
    wedge3
    {
        type            wedge;
    }
    outlet
    {
        type            zeroGradient;
    }
    defaultFaces
    {
        type            empty;
    }
}


// ************************************************************************* //
