/*--------------------------------*- C++ -*----------------------------------*\
| =========                 |                                                 |
| \\      /  F ield         | OpenFOAM: The Open Source CFD Toolbox           |
|  \\    /   O peration     | Version:  2312                                  |
|   \\  /    A nd           | Website:  www.openfoam.com                      |
|    \\/     M anipulation  |                                                 |
\*---------------------------------------------------------------------------*/
FoamFile
{
    version     2.0;
    format      ascii;
    arch        "LSB;label=32;scalar=64";
    class       volScalarField;
    location    "9e-05";
    object      rho;
}
// * * * * * * * * * * * * * * * * * * * * * * * * * * * * * * * * * * * * * //

dimensions      [1 -3 0 0 0 0 0];

internalField   nonuniform List<scalar> 
500
(
0.00556134
0.00556427
0.00556842
0.005574
0.00558116
0.00558994
0.00560037
0.00561249
0.00562631
0.00564184
0.00565912
0.00567814
0.00569893
0.00572152
0.00574592
0.00577215
0.00580025
0.00583022
0.00586211
0.00589593
0.00593172
0.00596952
0.00600935
0.00605125
0.00609526
0.00614141
0.00618976
0.00624034
0.0062932
0.00634839
0.00640596
0.00646597
0.00652846
0.0065935
0.00666115
0.00673147
0.00680454
0.00688041
0.00695916
0.00704087
0.00712562
0.0072135
0.00730458
0.00739895
0.00749672
0.00759798
0.00770283
0.00781138
0.00792374
0.00804003
0.00816036
0.00828486
0.00841367
0.00854692
0.00868474
0.0088273
0.00897474
0.00912722
0.00928492
0.009448
0.00961665
0.00979105
0.00997141
0.0101579
0.0103508
0.0105503
0.0107566
0.01097
0.0111907
0.011419
0.0116551
0.0118994
0.0121522
0.0124137
0.0126842
0.0129642
0.0132539
0.0135538
0.0138642
0.0141854
0.0145181
0.0148624
0.015219
0.0155882
0.0159707
0.0163668
0.0167771
0.0172022
0.0176426
0.018099
0.0185721
0.0190623
0.0195705
0.0200974
0.0206437
0.0212101
0.0217976
0.0224069
0.023039
0.0236948
0.0243752
0.0250812
0.025814
0.0265746
0.0273641
0.0281837
0.0290348
0.0299186
0.0308364
0.0317897
0.0327799
0.0338087
0.0348776
0.0359882
0.0371424
0.038342
0.0395888
0.0408849
0.0422323
0.0436332
0.0450898
0.0466045
0.0481797
0.049818
0.0515221
0.0532947
0.0551386
0.0570569
0.0590528
0.0611294
0.0632902
0.0655387
0.0678785
0.0703136
0.0728479
0.0754855
0.0782308
0.0810882
0.0840624
0.0871583
0.0903809
0.0937355
0.0972275
0.100863
0.104647
0.108586
0.112687
0.116956
0.1214
0.126027
0.130843
0.135856
0.141075
0.146508
0.152163
0.15805
0.164178
0.170556
0.177195
0.184106
0.191298
0.198785
0.206577
0.214687
0.223128
0.231913
0.241057
0.250573
0.260476
0.270783
0.281511
0.292675
0.304295
0.316388
0.328974
0.342075
0.35571
0.369903
0.384677
0.400055
0.416065
0.432733
0.450087
0.468156
0.486973
0.506568
0.526978
0.548238
0.570385
0.593461
0.617507
0.642568
0.668691
0.695925
0.724323
0.75394
0.784834
0.817067
0.850704
0.885815
0.922472
0.960753
1.00074
1.04252
1.08618
1.13182
1.17955
1.22946
1.28169
1.33634
1.39355
1.45346
1.5162
1.58192
1.65079
1.72298
1.79865
1.87799
1.96118
2.04807
2.13871
2.23351
2.33278
2.43675
2.5456
2.65948
2.77841
2.90231
3.03084
3.16325
3.29811
3.43285
3.56293
3.68072
3.7735
3.82089
3.79201
3.6446
3.33272
2.83402
2.21069
1.64184
1.30355
1.18841
1.16512
1.16156
1.16107
1.16101
1.161
1.161
1.161
1.161
1.161
1.161
1.161
1.161
1.161
1.161
1.161
1.161
1.161
1.161
1.161
1.161
1.161
1.161
1.161
1.161
1.161
1.161
1.161
1.161
1.161
1.161
1.161
1.161
1.161
1.161
1.161
1.161
1.161
1.161
1.161
1.161
1.161
1.161
1.161
1.161
1.161
1.161
1.161
1.161
1.161
1.161
1.161
1.161
1.161
1.161
1.161
1.161
1.161
1.161
1.161
1.161
1.161
1.161
1.161
1.161
1.161
1.161
1.161
1.161
1.161
1.161
1.161
1.161
1.161
1.161
1.161
1.161
1.161
1.161
1.161
1.161
1.161
1.161
1.161
1.161
1.161
1.161
1.161
1.161
1.161
1.161
1.161
1.161
1.161
1.161
1.161
1.161
1.161
1.161
1.161
1.161
1.161
1.161
1.161
1.161
1.161
1.161
1.161
1.161
1.161
1.161
1.161
1.161
1.161
1.161
1.161
1.161
1.161
1.161
1.161
1.161
1.161
1.161
1.161
1.161
1.161
1.161
1.161
1.161
1.161
1.161
1.161
1.161
1.161
1.161
1.161
1.161
1.161
1.161
1.161
1.161
1.161
1.161
1.161
1.161
1.161
1.161
1.161
1.161
1.161
1.161
1.161
1.161
1.161
1.161
1.161
1.161
1.161
1.161
1.161
1.161
1.161
1.161
1.161
1.161
1.161
1.161
1.161
1.161
1.161
1.161
1.161
1.161
1.161
1.161
1.161
1.161
1.161
1.161
1.161
1.161
1.161
1.161
1.161
1.161
1.161
1.161
1.161
1.161
1.161
1.161
1.161
1.161
1.161
1.161
1.161
1.161
1.161
1.161
1.161
1.161
1.161
1.161
1.161
1.161
1.161
1.161
1.161
1.161
1.161
1.161
1.161
1.161
1.161
1.161
1.161
1.161
1.161
1.161
1.161
1.161
1.161
1.161
1.161
1.161
1.161
1.161
1.161
1.161
1.161
1.161
1.161
1.161
1.161
1.161
1.161
1.161
1.161
1.161
1.161
1.161
1.161
1.161
1.161
1.161
1.161
1.161
1.161
1.161
1.161
1.161
1.161
1.161
1.161
1.161
1.161
1.161
)
;

boundaryField
{
    wedge0
    {
        type            wedge;
    }
    wedge1
    {
        type            wedge;
    }
    wedge2
    {
        type            wedge;
    }
    wedge3
    {
        type            wedge;
    }
    outlet
    {
        type            zeroGradient;
    }
    defaultFaces
    {
        type            empty;
    }
}


// ************************************************************************* //
