/*--------------------------------*- C++ -*----------------------------------*\
| =========                 |                                                 |
| \\      /  F ield         | OpenFOAM: The Open Source CFD Toolbox           |
|  \\    /   O peration     | Version:  2312                                  |
|   \\  /    A nd           | Website:  www.openfoam.com                      |
|    \\/     M anipulation  |                                                 |
\*---------------------------------------------------------------------------*/
FoamFile
{
    version     2.0;
    format      ascii;
    arch        "LSB;label=32;scalar=64";
    class       volScalarField;
    location    "9e-05";
    object      T;
}
// * * * * * * * * * * * * * * * * * * * * * * * * * * * * * * * * * * * * * //

dimensions      [0 0 0 1 0 0 0];

internalField   nonuniform List<scalar> 
500
(
251888
251834
251696
251477
251179
250805
250355
249829
249229
248555
247807
246987
246096
245133
244101
243000
241831
240595
239294
237928
236500
235009
233458
231849
230181
228458
226680
224850
222967
221036
219056
217029
214958
212844
210689
208495
206263
203995
201693
199359
196995
194602
192182
189738
187270
184781
182273
179747
177205
174650
172081
169503
166915
164320
161720
159116
156509
153902
151296
148693
146093
143498
140911
138332
135762
133203
130657
128124
125605
123103
120617
118149
115701
113272
110865
108480
106118
103779
101465
99176
96913.2
94677.1
92468.3
90287.5
88135.2
86011.8
83918
81854.1
79820.5
77817.7
75845.8
73905.3
71996.4
70119.3
68274.2
66461.2
64680.5
62932.2
61216.4
59532.9
57882
56263.5
54677.4
53123.6
51602
50112.5
48655
47229.1
45834.9
44471.9
43140.1
41839.1
40568.7
39328.6
38118.4
36937.9
35786.6
34664.4
33570.7
32505.2
31467.6
30457.4
29474.1
28517.5
27587.1
26682.4
25803
24948.5
24118.4
23312.3
22529.6
21770
21033
20318.1
19624.9
18952.9
18301.6
17670.5
17059.3
16467.4
15894.4
15339.8
14803.1
14284
13782
13296.6
12827.4
12374
11935.9
11512.7
11104
10709.4
10328.5
9960.89
9606.16
9263.94
8933.85
8615.53
8308.6
8012.73
7727.54
7452.72
7187.91
6932.81
6687.08
6450.42
6222.52
6003.1
5791.86
5588.52
5392.81
5204.46
5023.23
4848.85
4681.08
4519.69
4364.46
4215.15
4071.56
3933.47
3800.68
3673.01
3550.25
3432.24
3318.78
3209.72
3104.89
3004.13
2907.29
2814.21
2724.77
2638.81
2556.22
2476.86
2400.61
2327.35
2256.97
2189.36
2124.42
2062.04
2002.14
1944.61
1889.37
1836.33
1785.41
1736.53
1689.62
1644.61
1601.42
1559.99
1520.25
1482.15
1445.63
1410.62
1377.09
1344.97
1314.22
1284.79
1256.64
1229.88
1204.54
1180.42
1157.43
1135.49
1114.55
1094.55
1075.45
1057.19
1039.67
1022.79
1006.39
990.22
973.885
956.771
937.867
915.503
886.86
847.137
788.215
698.761
572.289
428.18
331.785
304.351
300.51
300.062
300.008
300.001
300
300
300
300
300
300
300
300
300
300
300
300
300
300
300
300
300
300
300
300
300
300
300
300
300
300
300
300
300
300
300
300
300
300
300
300
300
300
300
300
300
300
300
300
300
300
300
300
300
300
300
300
300
300
300
300
300
300
300
300
300
300
300
300
300
300
300
300
300
300
300
300
300
300
300
300
300
300
300
300
300
300
300
300
300
300
300
300
300
300
300
300
300
300
300
300
300
300
300
300
300
300
300
300
300
300
300
300
300
300
300
300
300
300
300
300
300
300
300
300
300
300
300
300
300
300
300
300
300
300
300
300
300
300
300
300
300
300
300
300
300
300
300
300
300
300
300
300
300
300
300
300
300
300
300
300
300
300
300
300
300
300
300
300
300
300
300
300
300
300
300
300
300
300
300
300
300
300
300
300
300
300
300
300
300
300
300
300
300
300
300
300
300
300
300
300
300
300
300
300
300
300
300
300
300
300
300
300
300
300
300
300
300
300
300
300
300
300
300
300
300
300
300
300
300
300
300
300
300
300
300
300
300
300
300
300
300
300
300
300
300
300
300
300
300
300
300
300
300
300
300
300
)
;

boundaryField
{
    wedge0
    {
        type            wedge;
    }
    wedge1
    {
        type            wedge;
    }
    wedge2
    {
        type            wedge;
    }
    wedge3
    {
        type            wedge;
    }
    outlet
    {
        type            zeroGradient;
    }
    defaultFaces
    {
        type            empty;
    }
}


// ************************************************************************* //
