/*--------------------------------*- C++ -*----------------------------------*\
| =========                 |                                                 |
| \\      /  F ield         | OpenFOAM: The Open Source CFD Toolbox           |
|  \\    /   O peration     | Version:  2312                                  |
|   \\  /    A nd           | Website:  www.openfoam.com                      |
|    \\/     M anipulation  |                                                 |
\*---------------------------------------------------------------------------*/
FoamFile
{
    version     2.0;
    format      ascii;
    arch        "LSB;label=32;scalar=64";
    class       volScalarField;
    location    "9e-05";
    object      thermo:e;
}
// * * * * * * * * * * * * * * * * * * * * * * * * * * * * * * * * * * * * * //

dimensions      [0 2 -2 0 0 0 0];

internalField   nonuniform List<scalar> 
500
(
1.8078e+08
1.80742e+08
1.80642e+08
1.80485e+08
1.80272e+08
1.80003e+08
1.7968e+08
1.79303e+08
1.78872e+08
1.78388e+08
1.77851e+08
1.77263e+08
1.76623e+08
1.75932e+08
1.75191e+08
1.74401e+08
1.73562e+08
1.72675e+08
1.71741e+08
1.70761e+08
1.69736e+08
1.68666e+08
1.67553e+08
1.66398e+08
1.65201e+08
1.63964e+08
1.62688e+08
1.61375e+08
1.60024e+08
1.58637e+08
1.57216e+08
1.55762e+08
1.54276e+08
1.52758e+08
1.51212e+08
1.49637e+08
1.48035e+08
1.46407e+08
1.44755e+08
1.4308e+08
1.41383e+08
1.39666e+08
1.37929e+08
1.36175e+08
1.34404e+08
1.32617e+08
1.30817e+08
1.29004e+08
1.2718e+08
1.25346e+08
1.23503e+08
1.21652e+08
1.19795e+08
1.17933e+08
1.16066e+08
1.14197e+08
1.12327e+08
1.10456e+08
1.08585e+08
1.06717e+08
1.04851e+08
1.02989e+08
1.01132e+08
9.92806e+07
9.74364e+07
9.56e+07
9.37723e+07
9.19543e+07
9.01468e+07
8.83507e+07
8.65667e+07
8.47958e+07
8.30385e+07
8.12957e+07
7.9568e+07
7.7856e+07
7.61606e+07
7.44821e+07
7.28213e+07
7.11786e+07
6.95546e+07
6.79497e+07
6.63645e+07
6.47993e+07
6.32546e+07
6.17307e+07
6.02279e+07
5.87467e+07
5.72872e+07
5.58497e+07
5.44345e+07
5.30418e+07
5.16718e+07
5.03246e+07
4.90004e+07
4.76992e+07
4.64212e+07
4.51665e+07
4.3935e+07
4.27268e+07
4.15419e+07
4.03803e+07
3.9242e+07
3.81268e+07
3.70348e+07
3.59658e+07
3.49197e+07
3.38963e+07
3.28957e+07
3.19175e+07
3.09617e+07
3.00279e+07
2.91162e+07
2.82261e+07
2.73576e+07
2.65103e+07
2.56841e+07
2.48786e+07
2.40937e+07
2.3329e+07
2.25843e+07
2.18592e+07
2.11536e+07
2.0467e+07
1.97993e+07
1.915e+07
1.85188e+07
1.79056e+07
1.73098e+07
1.67312e+07
1.61695e+07
1.56244e+07
1.50954e+07
1.45823e+07
1.40848e+07
1.36025e+07
1.3135e+07
1.26821e+07
1.22435e+07
1.18186e+07
1.14074e+07
1.10094e+07
1.06242e+07
1.02517e+07
9.89135e+06
9.54299e+06
9.20624e+06
8.88081e+06
8.56639e+06
8.26267e+06
7.96936e+06
7.68616e+06
7.41278e+06
7.14893e+06
6.89434e+06
6.64873e+06
6.41183e+06
6.18336e+06
5.96309e+06
5.75073e+06
5.54606e+06
5.34882e+06
5.15877e+06
4.97568e+06
4.79932e+06
4.62947e+06
4.4659e+06
4.30842e+06
4.15682e+06
4.01088e+06
3.87042e+06
3.73524e+06
3.60517e+06
3.48002e+06
3.35961e+06
3.24378e+06
3.13237e+06
3.02521e+06
2.92216e+06
2.82305e+06
2.72775e+06
2.63612e+06
2.54802e+06
2.46332e+06
2.38189e+06
2.30362e+06
2.22838e+06
2.15606e+06
2.08656e+06
2.01976e+06
1.95557e+06
1.89388e+06
1.8346e+06
1.77764e+06
1.72292e+06
1.67034e+06
1.61983e+06
1.5713e+06
1.5247e+06
1.47993e+06
1.43693e+06
1.39565e+06
1.356e+06
1.31793e+06
1.28139e+06
1.24631e+06
1.21264e+06
1.18034e+06
1.14934e+06
1.1196e+06
1.09109e+06
1.06374e+06
1.03753e+06
1.0124e+06
988337
965285
943215
922094
901889
882686
864497
847190
830687
814940
799910
785560
771853
758743
746172
734060
722289
710681
698957
686674
673107
657056
636500
607990
565702
501501
410732
307305
238122
218433
215676
215355
215316
215311
215310
215310
215310
215310
215310
215310
215310
215310
215310
215310
215310
215310
215310
215310
215310
215310
215310
215310
215310
215310
215310
215310
215310
215310
215310
215310
215310
215310
215310
215310
215310
215310
215310
215310
215310
215310
215310
215310
215310
215310
215310
215310
215310
215310
215310
215310
215310
215310
215310
215310
215310
215310
215310
215310
215310
215310
215310
215310
215310
215310
215310
215310
215310
215310
215310
215310
215310
215310
215310
215310
215310
215310
215310
215310
215310
215310
215310
215310
215310
215310
215310
215310
215310
215310
215310
215310
215310
215310
215310
215310
215310
215310
215310
215310
215310
215310
215310
215310
215310
215310
215310
215310
215310
215310
215310
215310
215310
215310
215310
215310
215310
215310
215310
215310
215310
215310
215310
215310
215310
215310
215310
215310
215310
215310
215310
215310
215310
215310
215310
215310
215310
215310
215310
215310
215310
215310
215310
215310
215310
215310
215310
215310
215310
215310
215310
215310
215310
215310
215310
215310
215310
215310
215310
215310
215310
215310
215310
215310
215310
215310
215310
215310
215310
215310
215310
215310
215310
215310
215310
215310
215310
215310
215310
215310
215310
215310
215310
215310
215310
215310
215310
215310
215310
215310
215310
215310
215310
215310
215310
215310
215310
215310
215310
215310
215310
215310
215310
215310
215310
215310
215310
215310
215310
215310
215310
215310
215310
215310
215310
215310
215310
215310
215310
215310
215310
215310
215310
215310
215310
215310
215310
215310
215310
215310
215310
215310
215310
215310
215310
215310
215310
215310
215310
215310
215310
215310
215310
215310
215310
215310
215310
215310
215310
215310
215310
215310
215310
215310
215310
215310
215310
215310
)
;

boundaryField
{
    wedge0
    {
        type            wedge;
    }
    wedge1
    {
        type            wedge;
    }
    wedge2
    {
        type            wedge;
    }
    wedge3
    {
        type            wedge;
    }
    outlet
    {
        type            zeroGradient;
    }
    defaultFaces
    {
        type            empty;
    }
}


// ************************************************************************* //
