/*--------------------------------*- C++ -*----------------------------------*\
| =========                 |                                                 |
| \\      /  F ield         | OpenFOAM: The Open Source CFD Toolbox           |
|  \\    /   O peration     | Version:  2312                                  |
|   \\  /    A nd           | Website:  www.openfoam.com                      |
|    \\/     M anipulation  |                                                 |
\*---------------------------------------------------------------------------*/
FoamFile
{
    version     2.0;
    format      ascii;
    arch        "LSB;label=32;scalar=64";
    class       volVectorField;
    location    "9e-05";
    object      U;
}
// * * * * * * * * * * * * * * * * * * * * * * * * * * * * * * * * * * * * * //

dimensions      [0 1 -1 0 0 0 0];

internalField   nonuniform List<vector> 
500
(
(2.82002 -3.61256e-10 3.71799e-10)
(5.07748 -3.55679e-10 3.64045e-10)
(7.59552 -3.67089e-10 3.75012e-10)
(10.2701 -3.63292e-10 3.69718e-10)
(13.0071 -3.42973e-10 3.47189e-10)
(15.7743 -3.38346e-10 3.41128e-10)
(18.5584 -3.29778e-10 3.33186e-10)
(21.3527 -3.20723e-10 3.23516e-10)
(24.1538 -3.06208e-10 3.06864e-10)
(26.9595 -2.8456e-10 2.864e-10)
(29.7687 -2.65786e-10 2.663e-10)
(32.5803 -2.47392e-10 2.47422e-10)
(35.3939 -2.29592e-10 2.29568e-10)
(38.2091 -2.11746e-10 2.11753e-10)
(41.0254 -1.94409e-10 1.94413e-10)
(43.8428 -1.78067e-10 1.78068e-10)
(46.6611 -1.62786e-10 1.62774e-10)
(49.48 -1.53463e-10 1.53453e-10)
(52.2996 -1.46213e-10 1.46232e-10)
(55.1197 -1.43357e-10 1.43351e-10)
(57.9403 -1.40503e-10 1.40502e-10)
(60.7613 -1.39472e-10 1.39474e-10)
(63.5827 -1.38613e-10 1.38609e-10)
(66.4044 -1.38115e-10 1.38115e-10)
(69.2264 -1.3643e-10 1.3643e-10)
(72.0488 -1.32147e-10 1.32149e-10)
(74.8714 -1.29433e-10 1.2943e-10)
(77.6943 -1.27739e-10 1.27745e-10)
(80.5174 -1.23361e-10 1.23362e-10)
(83.3407 -1.19916e-10 1.19908e-10)
(86.1643 -1.16265e-10 1.16257e-10)
(88.988 -1.1215e-10 1.12143e-10)
(91.812 -1.06173e-10 1.06173e-10)
(94.6362 -1.01285e-10 1.01285e-10)
(97.4606 -9.73166e-11 9.73166e-11)
(100.285 -9.34217e-11 9.34217e-11)
(103.11 -8.9251e-11 8.9251e-11)
(105.935 -8.57975e-11 8.57975e-11)
(108.76 -8.22567e-11 8.22567e-11)
(111.585 -7.80197e-11 7.80197e-11)
(114.411 -7.3151e-11 7.3151e-11)
(117.237 -6.77039e-11 6.77039e-11)
(120.063 -6.26708e-11 6.26708e-11)
(122.889 -5.86697e-11 5.86697e-11)
(125.715 -5.41725e-11 5.41725e-11)
(128.542 -4.98819e-11 4.98819e-11)
(131.368 -4.51391e-11 4.51391e-11)
(134.195 -4.00078e-11 4.00078e-11)
(137.022 -3.44866e-11 3.44866e-11)
(139.85 -3.03665e-11 3.03665e-11)
(142.677 -2.6147e-11 2.6147e-11)
(145.505 -2.22406e-11 2.22406e-11)
(148.333 -1.81927e-11 1.81927e-11)
(151.162 -1.47369e-11 1.47369e-11)
(153.99 -1.0964e-11 1.0964e-11)
(156.819 -7.28489e-12 7.28489e-12)
(159.648 -4.09306e-12 4.09306e-12)
(162.477 -1.35286e-12 1.35286e-12)
(165.307 9.67786e-13 -9.67786e-13)
(168.137 2.90865e-12 -2.90865e-12)
(170.967 3.78069e-12 -3.78069e-12)
(173.797 4.32945e-12 -4.32945e-12)
(176.628 4.56639e-12 -4.56639e-12)
(179.459 4.51167e-12 -4.51167e-12)
(182.29 4.33568e-12 -4.33568e-12)
(185.122 4.11379e-12 -4.11379e-12)
(187.954 4.1131e-12 -4.1131e-12)
(190.786 4.37406e-12 -4.37406e-12)
(193.619 3.88885e-12 -3.88885e-12)
(196.452 3.59192e-12 -3.59192e-12)
(199.286 3.54129e-12 -3.54129e-12)
(202.119 3.49134e-12 -3.49134e-12)
(204.954 3.39729e-12 -3.39729e-12)
(207.788 3.44696e-12 -3.44696e-12)
(210.624 3.35247e-12 -3.3525e-12)
(213.459 3.48732e-12 -3.48744e-12)
(216.295 3.26546e-12 -3.26578e-12)
(219.132 3.22365e-12 -3.2223e-12)
(221.969 3.23164e-12 -3.22056e-12)
(224.806 2.91575e-12 -2.89816e-12)
(227.645 2.42241e-12 -2.3973e-12)
(230.483 2.22745e-12 -2.19291e-12)
(233.323 1.97718e-12 -1.9195e-12)
(236.162 1.43802e-12 -1.35627e-12)
(239.003 6.17867e-13 -5.11191e-13)
(241.844 -2.82422e-13 3.54277e-13)
(244.686 -9.4299e-13 9.81432e-13)
(247.528 -1.39469e-12 1.41516e-12)
(250.371 -1.61811e-12 1.62183e-12)
(253.215 -1.71652e-12 1.7201e-12)
(256.06 -1.84543e-12 1.83065e-12)
(258.905 -1.76949e-12 1.73525e-12)
(261.752 -1.68385e-12 1.72223e-12)
(264.599 -1.61536e-12 1.64945e-12)
(267.447 -1.35292e-12 1.38325e-12)
(270.296 -1.06128e-12 1.04406e-12)
(273.146 -9.43736e-13 8.79722e-13)
(275.997 -7.29928e-13 7.2872e-13)
(278.849 -5.29001e-13 5.35853e-13)
(281.702 -2.99238e-13 3.15033e-13)
(284.556 -2.21638e-13 2.47252e-13)
(287.411 -1.50357e-13 1.87913e-13)
(290.267 -6.19605e-15 4.64985e-14)
(293.125 0 -2.46759e-14)
(295.984 8.13081e-14 -2.41742e-13)
(298.845 2.81318e-13 -4.24577e-13)
(301.707 3.63626e-13 -4.89334e-13)
(304.57 5.8339e-13 -6.90599e-13)
(307.435 7.00487e-13 -7.88145e-13)
(310.301 9.52416e-13 -1.01987e-12)
(313.169 1.34963e-12 -1.39583e-12)
(316.039 1.81336e-12 -1.84855e-12)
(318.91 2.0044e-12 -2.0282e-12)
(321.784 2.12685e-12 -2.13903e-12)
(324.659 2.36393e-12 -2.37522e-12)
(327.537 2.34566e-12 -2.35571e-12)
(330.416 2.06284e-12 -2.07115e-12)
(333.298 1.8626e-12 -1.86897e-12)
(336.182 1.7468e-12 -1.75091e-12)
(339.069 1.54794e-12 -1.54984e-12)
(341.958 1.59349e-12 -1.59291e-12)
(344.849 1.65821e-12 -1.65775e-12)
(347.743 1.50838e-12 -1.5081e-12)
(350.64 1.32473e-12 -1.32385e-12)
(353.541 1.05307e-12 -1.05137e-12)
(356.444 8.01731e-13 -8.00288e-13)
(359.35 5.90511e-13 -5.89546e-13)
(362.26 4.23404e-13 -4.22764e-13)
(365.173 2.99677e-13 -2.99387e-13)
(368.09 2.23283e-13 -2.23286e-13)
(371.011 1.84421e-13 -1.84282e-13)
(373.935 7.92262e-14 -7.91631e-14)
(376.864 1.37461e-14 -1.37537e-14)
(379.798 -1.2147e-13 1.21467e-13)
(382.735 -2.64897e-13 2.64895e-13)
(385.678 -2.81333e-13 2.81332e-13)
(388.626 -1.80725e-13 1.80725e-13)
(391.578 -2.13439e-13 2.13439e-13)
(394.537 -2.11882e-13 2.11882e-13)
(397.5 -2.11841e-13 2.11841e-13)
(400.47 -2.10944e-13 2.10944e-13)
(403.446 -2.09542e-13 2.09542e-13)
(406.429 -2.43947e-13 2.43947e-13)
(409.418 -2.07047e-13 2.07047e-13)
(412.414 -2.05418e-13 2.05418e-13)
(415.418 -1.70866e-13 1.70866e-13)
(418.429 -2.08543e-13 2.08543e-13)
(421.449 -1.86466e-13 1.86466e-13)
(424.477 -8.50295e-14 8.50295e-14)
(427.514 -1.15014e-14 1.15014e-14)
(430.56 1.86389e-14 -1.86389e-14)
(433.616 -8.44789e-15 8.44789e-15)
(436.682 2.13773e-14 -2.13773e-14)
(439.758 3.73609e-14 -3.73609e-14)
(442.846 -3.37663e-15 3.37663e-15)
(445.945 0 0)
(449.056 -1.1514e-14 1.14778e-14)
(452.18 -5.28465e-14 5.2895e-14)
(455.317 -5.89413e-14 5.92457e-14)
(458.468 -1.27728e-13 1.28144e-13)
(461.633 -1.83868e-13 1.84554e-13)
(464.814 -2.1808e-13 2.18659e-13)
(468.01 -2.28413e-13 2.28901e-13)
(471.223 -3.06584e-13 3.06874e-13)
(474.454 -2.96376e-13 2.96352e-13)
(477.702 -2.77882e-13 2.77873e-13)
(480.969 -2.56182e-13 2.56205e-13)
(484.256 -2.04067e-13 2.04176e-13)
(487.563 -1.68164e-13 1.68331e-13)
(490.892 -1.38824e-13 1.38939e-13)
(494.244 -1.36809e-13 1.36839e-13)
(497.619 -1.63241e-13 1.63255e-13)
(501.018 -1.79743e-13 1.79631e-13)
(504.444 -1.8049e-13 1.80348e-13)
(507.896 -1.93747e-13 1.9361e-13)
(511.375 -1.92091e-13 1.91969e-13)
(514.884 -1.61558e-13 1.61512e-13)
(518.424 -1.38516e-13 1.38452e-13)
(521.995 -1.3667e-13 1.36626e-13)
(525.599 -1.04923e-13 1.04916e-13)
(529.238 -7.84252e-14 7.84443e-14)
(532.913 -5.98836e-14 6.00264e-14)
(536.626 -3.89168e-14 3.90458e-14)
(540.377 -2.04772e-14 2.05754e-14)
(544.169 -5.61211e-15 5.68259e-15)
(548.004 0 0)
(551.883 0 0)
(555.807 0 0)
(559.78 0 0)
(563.802 0 0)
(567.876 2.32197e-14 -2.32197e-14)
(572.004 2.0262e-14 -2.0262e-14)
(576.188 7.48067e-15 -7.48067e-15)
(580.429 -1.11472e-14 1.11472e-14)
(584.731 1.00256e-14 -1.00256e-14)
(589.095 0 0)
(593.524 -1.79968e-14 1.79968e-14)
(598.02 -1.4143e-14 1.4143e-14)
(602.586 -3.88056e-15 3.88056e-15)
(607.223 1.38597e-14 -1.38532e-14)
(611.935 2.84456e-14 -2.83246e-14)
(616.723 2.99395e-14 -2.98983e-14)
(621.591 2.26213e-14 -2.25843e-14)
(626.541 1.40036e-14 -1.39662e-14)
(631.575 1.05928e-15 -1.02785e-15)
(636.697 -7.98428e-15 8.01495e-15)
(641.908 1.10853e-15 -1.07934e-15)
(647.211 -7.23609e-15 7.26476e-15)
(652.609 1.59998e-15 -1.56581e-15)
(658.105 -2.63971e-15 2.71477e-15)
(663.7 -3.8977e-16 4.16536e-16)
(669.397 -2.03e-15 2.0413e-15)
(675.198 -9.49822e-15 9.50549e-15)
(681.106 -1.38232e-14 1.38348e-14)
(687.122 -2.0391e-14 2.04076e-14)
(693.248 -3.81158e-14 3.81227e-14)
(699.486 -3.87653e-14 3.87757e-14)
(705.834 -3.41068e-14 3.41249e-14)
(712.294 -2.78104e-14 2.78154e-14)
(718.881 -2.36078e-14 2.36136e-14)
(725.589 -1.96613e-14 1.96668e-14)
(732.404 -1.59635e-14 1.59687e-14)
(739.321 -1.24638e-14 1.24672e-14)
(746.33 -9.06661e-15 9.06661e-15)
(753.417 2.7446e-15 -2.7446e-15)
(760.557 1.90972e-15 -1.90972e-15)
(767.714 -9.15969e-16 9.15969e-16)
(774.826 -1.02141e-14 1.02141e-14)
(781.796 -7.88606e-15 7.88606e-15)
(788.471 -7.03196e-15 7.03196e-15)
(794.604 -1.35989e-14 1.35989e-14)
(799.796 -1.28051e-14 1.28051e-14)
(803.407 -7.7121e-15 7.7121e-15)
(804.395 -9.12227e-15 9.12227e-15)
(801.069 -6.23191e-15 6.23191e-15)
(790.666 -4.07205e-15 4.07205e-15)
(768.695 -3.40071e-15 3.40071e-15)
(727.941 -2.56907e-15 2.56907e-15)
(657.298 -1.80067e-15 1.80067e-15)
(542.626 -2.39116e-15 2.39116e-15)
(377.289 -7.33445e-15 7.33445e-15)
(188.624 -5.18109e-15 5.18109e-15)
(54.9148 -1.05377e-16 1.05377e-16)
(9.43999 1.79064e-14 -1.79064e-14)
(1.30331 2.58822e-14 -2.58822e-14)
(0.172074 2.35221e-14 -2.35221e-14)
(0.0224734 9.81918e-15 -9.81918e-15)
(0.0029164 7.33408e-15 -7.33408e-15)
(0.000376284 8.54179e-15 -8.54179e-15)
(4.82758e-05 -1.19575e-15 1.19575e-15)
(6.15904e-06 -5.45988e-18 5.45988e-18)
(7.81426e-07 0 0)
(9.85941e-08 0 0)
(1.23633e-08 0 0)
(1.53243e-09 0 0)
(1.80372e-10 0 0)
(6.36343e-12 -1.70518e-15 1.70518e-15)
(-1.17423e-11 -6.81786e-15 6.81786e-15)
(-7.60878e-12 -1.70579e-15 1.70579e-15)
(-1.06564e-11 0 0)
(2.31358e-12 0 0)
(1.93702e-11 0 0)
(1.11749e-11 1.59264e-15 -1.59264e-15)
(-6.72549e-12 6.44027e-15 -6.44027e-15)
(-1.10601e-11 1.44943e-14 -1.44943e-14)
(-1.30026e-11 1.2831e-14 -1.2831e-14)
(-2.37373e-11 1.43723e-14 -1.43723e-14)
(-2.74204e-11 6.39223e-15 -6.39223e-15)
(-1.85561e-11 1.61693e-15 -1.61693e-15)
(-1.67629e-12 0 0)
(8.50509e-12 0 0)
(1.05365e-11 0 0)
(1.71911e-11 0 0)
(1.69192e-11 0 0)
(1.36529e-11 -1.48964e-15 1.48964e-15)
(6.48376e-12 -5.95584e-15 5.95584e-15)
(1.35514e-11 -1.48984e-15 1.48984e-15)
(3.28407e-11 0 0)
(3.49393e-11 0 0)
(1.45611e-11 0 0)
(4.68402e-12 0 0)
(8.07719e-12 9.41209e-16 -9.41209e-16)
(7.36403e-13 4.71664e-15 -4.71664e-15)
(-7.50132e-12 0 0)
(-1.21276e-11 -4.65717e-15 4.65717e-15)
(-1.8066e-11 -9.34518e-16 9.34518e-16)
(-2.09398e-11 0 0)
(-9.2522e-12 0 0)
(6.41244e-12 -2.71619e-15 2.71619e-15)
(1.01816e-11 0 0)
(3.52471e-12 0 0)
(1.10185e-12 1.77644e-15 -1.77644e-15)
(3.29907e-12 -1.75767e-15 1.75767e-15)
(-2.46476e-12 0 0)
(1.65147e-12 0 0)
(1.13637e-11 1.73079e-15 -1.73079e-15)
(1.11554e-11 -1.70991e-15 1.70991e-15)
(1.01412e-11 0 0)
(8.51956e-12 0 0)
(4.10411e-12 0 0)
(-3.8787e-12 -2.50629e-15 2.50629e-15)
(-3.11197e-12 -7.62775e-19 7.62775e-19)
(5.72416e-12 -2.47052e-15 2.47052e-15)
(1.28127e-11 0 0)
(6.53379e-12 2.4385e-15 -2.4385e-15)
(-2.59836e-12 0 0)
(-3.41515e-12 0 0)
(-5.12155e-12 0 0)
(-8.37159e-12 -4.75069e-15 4.75069e-15)
(-2.24982e-11 -4.73367e-15 4.73367e-15)
(-3.34655e-11 -1.60424e-17 1.60424e-17)
(-3.94798e-11 0 0)
(-3.37994e-11 0 0)
(-1.05278e-11 0 0)
(9.22024e-12 2.28557e-15 -2.28557e-15)
(1.78659e-11 0 0)
(1.49534e-11 0 0)
(2.85295e-11 -3.84066e-16 3.84066e-16)
(3.82493e-11 -5.23578e-15 5.23578e-15)
(2.35524e-11 -1.4499e-14 1.4499e-14)
(-5.11376e-13 -1.92889e-14 1.92889e-14)
(-6.83544e-12 -1.96599e-14 1.96599e-14)
(6.10465e-12 -1.5671e-14 1.5671e-14)
(1.23264e-11 -1.60378e-14 1.60378e-14)
(1.14226e-11 -1.20938e-14 1.20938e-14)
(6.3183e-12 -3.89607e-15 3.89607e-15)
(-1.95484e-13 0 0)
(-7.97853e-12 0 0)
(-1.57989e-11 2.09511e-15 -2.09511e-15)
(-1.26533e-11 0 0)
(4.87519e-12 0 0)
(1.56882e-11 0 0)
(1.46576e-11 0 0)
(6.07199e-12 -4.06521e-15 4.06521e-15)
(-2.46279e-12 -4.05358e-15 4.05358e-15)
(-8.6623e-12 -1.27789e-17 1.27789e-17)
(-1.05277e-11 0 0)
(-1.77502e-11 0 0)
(-2.3934e-11 0 0)
(-2.1328e-11 0 0)
(-2.20695e-11 0 0)
(-1.13211e-11 -1.93845e-15 1.93845e-15)
(-2.55267e-12 0 0)
(-8.18221e-12 0 0)
(-1.39252e-11 1.90625e-15 -1.90625e-15)
(2.38994e-12 2.80426e-18 -2.80426e-18)
(2.05742e-11 1.88453e-15 -1.88453e-15)
(1.3431e-11 0 0)
(-6.81901e-14 -3.09503e-15 3.09503e-15)
(-4.20485e-12 -2.46339e-15 2.46339e-15)
(8.9036e-13 -5.52345e-15 5.52345e-15)
(-2.54528e-12 -4.89672e-15 4.89672e-15)
(3.34094e-12 -6.20917e-16 6.20917e-16)
(1.2652e-11 0 0)
(1.08217e-11 0 0)
(6.23065e-12 1.78882e-15 -1.78882e-15)
(1.89504e-12 0 0)
(2.80268e-12 -4.24136e-15 4.24136e-15)
(9.74907e-13 -4.93165e-15 4.93165e-15)
(-7.49498e-12 -2.10969e-15 2.10969e-15)
(-1.61682e-11 -2.79002e-15 2.79002e-15)
(-1.67375e-11 0 0)
(-8.6302e-12 0 0)
(6.92499e-12 -1.71045e-15 1.71045e-15)
(4.46212e-12 -8.6151e-19 8.6151e-19)
(2.57232e-12 -1.69315e-15 1.69315e-15)
(4.56848e-12 0 0)
(-9.56943e-12 1.6741e-15 -1.6741e-15)
(-1.79327e-11 0 0)
(-8.57844e-12 0 0)
(-5.67075e-12 -7.98798e-16 7.98798e-16)
(-1.56001e-11 -4.87665e-15 4.87665e-15)
(-8.12554e-12 -5.66569e-15 5.66569e-15)
(1.69683e-12 -9.69763e-15 9.69763e-15)
(5.12914e-12 -1.04772e-14 1.04772e-14)
(1.80428e-12 -8.03874e-15 8.03874e-15)
(-4.79705e-12 -2.4142e-15 2.4142e-15)
(-1.60385e-12 0 0)
(-4.32026e-12 0 0)
(-9.02767e-12 1.56991e-15 -1.56991e-15)
(-1.46623e-11 2.71733e-18 -2.71733e-18)
(-2.16438e-11 1.55462e-15 -1.55462e-15)
(-1.90759e-11 0 0)
(-1.19632e-11 0 0)
(-2.48574e-12 -1.52907e-15 1.52907e-15)
(1.95886e-12 0 0)
(3.8732e-12 0 0)
(8.73808e-12 0 0)
(1.12637e-11 2.99654e-15 -2.99654e-15)
(5.91834e-12 2.989e-15 -2.989e-15)
(5.49583e-12 8.73602e-18 -8.73602e-18)
(1.49141e-11 0 0)
(7.28781e-12 0 0)
(-5.18249e-12 1.45899e-15 -1.45899e-15)
(-1.15617e-11 0 0)
(-1.2107e-11 0 0)
(-4.93629e-12 0 0)
(-2.89038e-12 0 0)
(-8.60854e-12 0 0)
(-1.07027e-11 0 0)
(-1.73159e-12 0 0)
(8.70442e-12 0 0)
(1.93803e-11 5.97332e-16 -5.97332e-16)
(2.47392e-11 3.97407e-15 -3.97407e-15)
(1.77681e-11 1.01017e-14 -1.01017e-14)
(1.51569e-11 1.34447e-14 -1.34447e-14)
(1.73381e-11 1.40272e-14 -1.40272e-14)
(1.44676e-11 6.41929e-15 -6.41929e-15)
(7.2184e-13 1.56298e-15 -1.56298e-15)
(-8.09215e-12 -5.6893e-16 5.6893e-16)
(-7.90423e-12 0 0)
(-9.32425e-12 0 0)
(-4.73463e-12 0 0)
(-4.08588e-12 0 0)
(1.69422e-12 0 0)
(8.14352e-12 0 0)
(9.31798e-12 0 0)
(7.82897e-12 0 0)
(9.22689e-12 -8.6122e-16 8.6122e-16)
(2.21356e-11 8.53924e-16 -8.53924e-16)
(2.54531e-11 0 0)
(2.09196e-11 0 0)
(1.34376e-11 -1.2664e-15 1.2664e-15)
(7.72434e-12 -1.79693e-18 1.79693e-18)
(4.60016e-12 -1.25624e-15 1.25624e-15)
(-3.11822e-12 -1.53986e-18 1.53986e-18)
(-5.97504e-12 -1.24356e-15 1.24356e-15)
(-6.24718e-12 0 0)
(-7.7892e-12 -8.22154e-16 8.22154e-16)
(-2.57602e-12 8.15941e-16 -8.15941e-16)
(1.66626e-12 0 0)
(-1.58025e-11 1.2146e-15 -1.2146e-15)
(-1.9323e-11 2.32054e-19 -2.32054e-19)
(-9.25656e-12 1.20359e-15 -1.20359e-15)
(-5.99287e-13 0 0)
(7.20573e-12 7.96168e-16 -7.96168e-16)
(7.82371e-12 -7.89788e-16 7.89788e-16)
(-2.01669e-14 0 0)
(-6.77203e-12 -9.22231e-16 9.22231e-16)
(-7.05054e-12 -4.1856e-15 4.1856e-15)
(-1.1357e-11 -9.76744e-15 9.76744e-15)
(-1.16813e-11 -8.35219e-15 8.35219e-15)
(3.92544e-12 0 0)
(5.8129e-13 8.27137e-15 -8.27137e-15)
(-1.50505e-11 9.62659e-15 -9.62659e-15)
(-1.12392e-11 4.1287e-15 -4.1287e-15)
(-8.27187e-12 9.26006e-16 -9.26006e-16)
(9.75144e-12 0 0)
(3.67808e-11 9.53667e-16 -9.53667e-16)
(3.87482e-11 4.1453e-15 -4.1453e-15)
(2.01146e-11 6.24716e-16 -6.24716e-16)
(2.05386e-11 -1.7224e-15 1.7224e-15)
(2.39839e-11 -6.27118e-15 6.27118e-15)
(1.32825e-11 -4.19079e-15 4.19079e-15)
(5.94498e-12 -4.31205e-15 4.31205e-15)
(-4.01189e-12 -6.61494e-15 6.61494e-15)
(-6.50891e-12 -1.1081e-14 1.1081e-14)
(-5.18938e-12 -1.76911e-14 1.76911e-14)
(-8.76923e-12 -2.61622e-14 2.61622e-14)
(-7.94048e-12 -2.81772e-14 2.81772e-14)
(-5.69168e-12 -2.77081e-14 2.77081e-14)
(-1.73197e-14 -2.50654e-14 2.50654e-14)
(-5.85356e-12 -1.60813e-14 1.60813e-14)
(-1.37796e-11 -8.88442e-15 8.88442e-15)
(-6.33945e-12 -3.8172e-15 3.8172e-15)
(-6.2863e-12 -8.61678e-16 8.61678e-16)
(-3.06344e-12 0 0)
(1.54998e-11 0 0)
(7.97183e-12 0 0)
(-8.99348e-12 0 0)
(-1.79894e-11 0 0)
(-1.04846e-11 6.73757e-16 -6.73757e-16)
(5.91029e-12 3.28953e-15 -3.28953e-15)
(-1.38836e-12 -1.67987e-16 1.67987e-16)
(-1.03979e-11 -5.62213e-15 5.62213e-15)
(-2.08103e-12 -5.04212e-15 5.04212e-15)
(1.64728e-11 -6.4597e-15 6.4597e-15)
(2.61318e-11 -1.91042e-15 1.91042e-15)
(1.67021e-11 6.41744e-16 -6.41744e-16)
(-7.03511e-12 3.70587e-15 -3.70587e-15)
(-2.66166e-11 8.70114e-16 -8.70114e-16)
(-2.95663e-11 0 0)
(-2.00933e-11 0 0)
(-2.23967e-11 -3.32913e-16 3.32913e-16)
(-2.55791e-11 -2.59285e-15 2.59285e-15)
(-7.90889e-12 -6.76431e-15 6.76431e-15)
(6.21005e-12 -5.17779e-15 5.17779e-15)
(5.76983e-12 -9.31489e-15 9.31489e-15)
(-8.54569e-12 -1.53329e-14 1.53329e-14)
(-2.23835e-11 -2.3211e-14 2.3211e-14)
(-1.27952e-11 -2.54083e-14 2.54083e-14)
(3.15845e-12 -2.35426e-14 2.35426e-14)
(1.77702e-11 -1.60814e-14 1.60814e-14)
(2.24935e-11 -1.05037e-14 1.05037e-14)
(1.64622e-11 -6.80072e-15 6.80072e-15)
(2.54797e-11 -4.95721e-15 4.95721e-15)
(2.3643e-11 -4.95822e-15 4.95822e-15)
(1.64813e-11 -6.78904e-15 6.78904e-15)
(3.93168e-12 -3.14356e-15 3.14356e-15)
(-1.28631e-11 -1.32812e-15 1.32812e-15)
)
;

boundaryField
{
    wedge0
    {
        type            wedge;
    }
    wedge1
    {
        type            wedge;
    }
    wedge2
    {
        type            wedge;
    }
    wedge3
    {
        type            wedge;
    }
    outlet
    {
        type            zeroGradient;
    }
    defaultFaces
    {
        type            empty;
    }
}


// ************************************************************************* //
