/*--------------------------------*- C++ -*----------------------------------*\
| =========                 |                                                 |
| \\      /  F ield         | OpenFOAM: The Open Source CFD Toolbox           |
|  \\    /   O peration     | Version:  2312                                  |
|   \\  /    A nd           | Website:  www.openfoam.com                      |
|    \\/     M anipulation  |                                                 |
\*---------------------------------------------------------------------------*/
FoamFile
{
    version     2.0;
    format      ascii;
    arch        "LSB;label=32;scalar=64";
    class       volScalarField;
    location    "0.00021";
    object      p;
}
// * * * * * * * * * * * * * * * * * * * * * * * * * * * * * * * * * * * * * //

dimensions      [1 -1 -2 0 0 0 0];

internalField   nonuniform List<scalar> 
500
(
173373
173399
173415
173426
173435
173442
173447
173452
173457
173461
173464
173468
173471
173474
173476
173479
173482
173484
173486
173489
173491
173493
173495
173498
173500
173502
173504
173506
173508
173510
173512
173514
173516
173518
173521
173523
173525
173527
173529
173531
173533
173536
173538
173540
173542
173545
173547
173549
173552
173554
173557
173559
173562
173565
173567
173570
173573
173575
173578
173581
173584
173587
173590
173593
173596
173600
173603
173606
173610
173613
173617
173621
173624
173628
173632
173636
173640
173644
173649
173653
173657
173662
173666
173671
173676
173681
173686
173691
173697
173702
173708
173713
173719
173725
173731
173737
173744
173750
173757
173764
173771
173778
173786
173794
173801
173809
173818
173826
173835
173844
173853
173862
173872
173882
173892
173902
173913
173924
173935
173947
173958
173971
173983
173996
174009
174023
174037
174051
174066
174081
174097
174113
174130
174147
174164
174182
174201
174220
174240
174260
174281
174303
174325
174348
174371
174395
174420
174446
174473
174500
174528
174557
174587
174618
174650
174683
174717
174752
174788
174825
174863
174903
174944
174986
175030
175075
175121
175169
175218
175269
175322
175377
175433
175491
175551
175613
175677
175743
175811
175882
175955
176030
176108
176189
176272
176358
176447
176539
176634
176732
176833
176938
177047
177159
177275
177395
177519
177647
177779
177916
178058
178204
178356
178512
178674
178841
179015
179193
179379
179570
179768
179972
180184
180402
180628
180862
181104
181354
181612
181879
182155
182440
182735
183040
183355
183680
184017
184364
184724
185095
185479
185875
186284
186708
187145
187596
188062
188544
189042
189555
190086
190634
191199
191783
192386
193009
193651
194315
194999
195705
196434
197186
197963
198763
199589
200441
201320
202226
203161
204125
205119
206144
207200
208289
209411
210568
211761
212989
214255
215560
216903
218287
219713
221182
222694
224251
225854
227504
229203
230952
232752
234604
236510
238471
240488
242563
244697
246892
249149
251469
253855
256307
258827
261417
264078
266813
269621
272506
275469
278512
281635
284842
288134
291512
294978
298534
302182
305923
309760
313695
317728
321862
326099
330441
334889
339445
344112
348890
353782
358790
363915
369158
374522
380007
385614
391344
397195
403164
409248
415438
421718
428065
434438
440772
446958
452823
458078
462262
464627
463977
458463
445347
420972
381442
324948
256025
188327
138616
113017
103673
100956
100240
100058
100013
100001
99998.5
99997.8
99997.6
99997.6
99997.6
99997.6
99997.6
99997.6
99997.6
99997.6
99997.6
99997.6
99997.6
99997.6
99997.6
99997.6
99997.6
99997.6
99997.6
99997.6
99997.6
99997.6
99997.6
99997.6
99997.6
99997.6
99997.6
99997.6
99997.6
99997.6
99997.6
99997.6
99997.6
99997.6
99997.6
99997.6
99997.6
99997.6
99997.6
99997.6
99997.6
99997.6
99997.6
99997.6
99997.6
99997.6
99997.6
99997.6
99997.6
99997.6
99997.6
99997.6
99997.6
99997.6
99997.6
99997.6
99997.6
99997.6
99997.6
99997.6
99997.6
99997.6
99997.6
99997.6
99997.6
99997.6
99997.6
99997.6
99997.6
99997.6
99997.6
99997.6
99997.6
99997.6
99997.6
99997.6
99997.6
99997.6
99997.6
99997.6
99997.6
99997.6
99997.6
99997.6
99997.6
99997.6
99997.6
99997.6
99997.6
99997.6
99997.6
99997.6
99997.6
99997.6
99997.6
99997.6
99997.6
99997.6
99997.6
99997.6
99997.6
99997.6
99997.6
99997.6
99997.6
99997.6
99997.6
99997.6
99997.6
99997.6
99997.6
99997.6
99997.6
99997.6
99997.6
99997.6
99997.6
99997.6
99997.6
99997.6
99997.6
99997.6
99997.6
99997.6
99997.6
99997.6
99997.6
99997.6
99997.6
99997.6
99997.6
99997.6
99997.6
99997.6
99997.6
99997.6
99997.6
99997.6
99997.6
99997.6
99997.6
99997.6
99997.6
99997.6
99997.6
)
;

boundaryField
{
    wedge0
    {
        type            wedge;
    }
    wedge1
    {
        type            wedge;
    }
    wedge2
    {
        type            wedge;
    }
    wedge3
    {
        type            wedge;
    }
    outlet
    {
        type            zeroGradient;
    }
    defaultFaces
    {
        type            empty;
    }
}


// ************************************************************************* //
