/*--------------------------------*- C++ -*----------------------------------*\
| =========                 |                                                 |
| \\      /  F ield         | OpenFOAM: The Open Source CFD Toolbox           |
|  \\    /   O peration     | Version:  2312                                  |
|   \\  /    A nd           | Website:  www.openfoam.com                      |
|    \\/     M anipulation  |                                                 |
\*---------------------------------------------------------------------------*/
FoamFile
{
    version     2.0;
    format      ascii;
    arch        "LSB;label=32;scalar=64";
    class       volScalarField;
    location    "0.00021";
    object      rho;
}
// * * * * * * * * * * * * * * * * * * * * * * * * * * * * * * * * * * * * * //

dimensions      [1 -3 0 0 0 0 0];

internalField   nonuniform List<scalar> 
500
(
0.00435578
0.00435706
0.00435897
0.00436159
0.00436497
0.00436914
0.0043741
0.00437986
0.00438643
0.00439382
0.00440202
0.00441106
0.00442092
0.00443162
0.00444316
0.00445555
0.0044688
0.00448292
0.0044979
0.00451376
0.00453051
0.00454816
0.00456672
0.00458619
0.00460659
0.00462793
0.00465021
0.00467346
0.00469769
0.0047229
0.00474911
0.00477634
0.00480461
0.00483391
0.00486428
0.00489574
0.00492829
0.00496195
0.00499675
0.0050327
0.00506983
0.00510816
0.0051477
0.00518848
0.00523053
0.00527386
0.00531851
0.00536449
0.00541185
0.00546059
0.00551076
0.00556238
0.00561549
0.00567011
0.00572627
0.00578402
0.00584339
0.00590441
0.00596712
0.00603156
0.00609777
0.00616578
0.00623566
0.00630742
0.00638113
0.00645683
0.00653457
0.00661439
0.00669635
0.0067805
0.0068669
0.00695561
0.00704667
0.00714016
0.00723614
0.00733466
0.00743579
0.00753962
0.00764619
0.0077556
0.00786791
0.0079832
0.00810155
0.00822304
0.00834777
0.00847581
0.00860727
0.00874223
0.00888079
0.00902306
0.00916913
0.00931911
0.00947312
0.00963126
0.00979367
0.00996045
0.0101317
0.0103076
0.0104883
0.0106739
0.0108646
0.0110604
0.0112616
0.0114683
0.0116806
0.0118989
0.0121231
0.0123535
0.0125903
0.0128336
0.0130837
0.0133408
0.0136051
0.0138768
0.014156
0.0144432
0.0147384
0.015042
0.0153542
0.0156753
0.0160055
0.0163451
0.0166944
0.0170538
0.0174234
0.0178037
0.018195
0.0185977
0.019012
0.0194383
0.0198771
0.0203286
0.0207934
0.0212718
0.0217643
0.0222713
0.0227932
0.0233306
0.0238839
0.0244536
0.0250403
0.0256444
0.0262666
0.0269074
0.0275675
0.0282473
0.0289475
0.0296688
0.0304119
0.0311775
0.0319662
0.0327787
0.0336159
0.0344786
0.0353674
0.0362834
0.0372272
0.0381998
0.0392021
0.040235
0.0412995
0.0423965
0.0435272
0.0446925
0.0458935
0.0471313
0.0484071
0.049722
0.0510773
0.0524741
0.0539138
0.0553977
0.0569271
0.0585034
0.060128
0.0618024
0.063528
0.0653065
0.0671393
0.0690281
0.0709746
0.0729804
0.0750473
0.0771771
0.0793716
0.0816326
0.0839621
0.0863621
0.0888345
0.0913813
0.0940047
0.0967069
0.0994899
0.102356
0.105308
0.108347
0.111476
0.114698
0.118015
0.121429
0.124944
0.128561
0.132283
0.136114
0.140055
0.14411
0.148281
0.152571
0.156984
0.161522
0.166188
0.170985
0.175917
0.180986
0.186196
0.19155
0.197051
0.202703
0.208508
0.214471
0.220595
0.226882
0.233338
0.239965
0.246766
0.253746
0.260908
0.268255
0.275792
0.283522
0.291448
0.299575
0.307907
0.316446
0.325198
0.334165
0.343352
0.352763
0.362401
0.37227
0.382374
0.392718
0.403304
0.414138
0.425222
0.436561
0.448159
0.46002
0.472148
0.484546
0.497219
0.51017
0.523404
0.536924
0.550734
0.564839
0.579242
0.593946
0.608957
0.624278
0.639912
0.655863
0.672136
0.688734
0.705661
0.72292
0.740516
0.758452
0.776732
0.79536
0.814338
0.833672
0.853364
0.873417
0.893837
0.914625
0.935786
0.957323
0.97924
1.00154
1.02422
1.0473
1.07077
1.09463
1.11889
1.14355
1.16862
1.1941
1.21998
1.24628
1.273
1.30013
1.32769
1.35567
1.38408
1.41291
1.44218
1.47188
1.50202
1.53259
1.5636
1.59505
1.62695
1.65929
1.69207
1.7253
1.75899
1.79312
1.82771
1.86274
1.89824
1.93419
1.97059
2.00745
2.04478
2.08256
2.1208
2.15951
2.19868
2.23831
2.27841
2.31897
2.35999
2.40148
2.44342
2.48581
2.52864
2.57189
2.61553
2.65952
2.70378
2.74819
2.79254
2.83654
2.87967
2.9211
2.95947
2.99262
3.01699
3.0269
3.01357
2.96385
2.85974
2.68076
2.41349
2.07118
1.71206
1.42341
1.25738
1.18992
1.16878
1.163
1.1615
1.16113
1.16103
1.16101
1.161
1.161
1.161
1.161
1.161
1.161
1.161
1.161
1.161
1.161
1.161
1.161
1.161
1.161
1.161
1.161
1.161
1.161
1.161
1.161
1.161
1.161
1.161
1.161
1.161
1.161
1.161
1.161
1.161
1.161
1.161
1.161
1.161
1.161
1.161
1.161
1.161
1.161
1.161
1.161
1.161
1.161
1.161
1.161
1.161
1.161
1.161
1.161
1.161
1.161
1.161
1.161
1.161
1.161
1.161
1.161
1.161
1.161
1.161
1.161
1.161
1.161
1.161
1.161
1.161
1.161
1.161
1.161
1.161
1.161
1.161
1.161
1.161
1.161
1.161
1.161
1.161
1.161
1.161
1.161
1.161
1.161
1.161
1.161
1.161
1.161
1.161
1.161
1.161
1.161
1.161
1.161
1.161
1.161
1.161
1.161
1.161
1.161
1.161
1.161
1.161
1.161
1.161
1.161
1.161
1.161
1.161
1.161
1.161
1.161
1.161
1.161
1.161
1.161
1.161
1.161
1.161
1.161
1.161
1.161
1.161
1.161
1.161
1.161
1.161
1.161
1.161
1.161
1.161
1.161
1.161
1.161
1.161
1.161
1.161
1.161
1.161
1.161
1.161
1.161
1.161
1.161
1.161
1.161
)
;

boundaryField
{
    wedge0
    {
        type            wedge;
    }
    wedge1
    {
        type            wedge;
    }
    wedge2
    {
        type            wedge;
    }
    wedge3
    {
        type            wedge;
    }
    outlet
    {
        type            zeroGradient;
    }
    defaultFaces
    {
        type            empty;
    }
}


// ************************************************************************* //
