/*--------------------------------*- C++ -*----------------------------------*\
| =========                 |                                                 |
| \\      /  F ield         | OpenFOAM: The Open Source CFD Toolbox           |
|  \\    /   O peration     | Version:  2312                                  |
|   \\  /    A nd           | Website:  www.openfoam.com                      |
|    \\/     M anipulation  |                                                 |
\*---------------------------------------------------------------------------*/
FoamFile
{
    version     2.0;
    format      ascii;
    arch        "LSB;label=32;scalar=64";
    class       volScalarField;
    location    "0.00021";
    object      T;
}
// * * * * * * * * * * * * * * * * * * * * * * * * * * * * * * * * * * * * * //

dimensions      [0 0 0 1 0 0 0];

internalField   nonuniform List<scalar> 
500
(
138637
138617
138570
138495
138395
138268
138116
137938
137735
137506
137253
136974
136671
136344
135992
135615
135215
134792
134344
133874
133381
132865
132327
131767
131185
130582
129957
129312
128647
127962
127257
126533
125790
125029
124250
123453
122639
121809
120962
120099
119221
118328
117421
116499
115564
114616
113656
112683
111699
110703
109697
108680
107654
106619
105575
104522
103462
102394
101320
100239
99152.4
98060.3
96963.2
95861.7
94756.1
93646.9
92534.7
91419.7
90302.6
89183.6
88063.3
86942.1
85820.4
84698.6
83577.1
82456.3
81336.7
80218.6
79102.4
77988.5
76877.2
75769
74664.1
73563
72465.9
71373.1
70285.1
69202.2
68124.5
67052.5
65986.5
64926.6
63873.2
62826.6
61786.9
60754.5
59729.7
58712.5
57703.3
56702.2
55709.5
54725.4
53750
52783.6
51826.3
50878.2
49939.6
49010.6
48091.2
47181.7
46282.2
45392.7
44513.5
43644.5
42785.9
41937.8
41100.2
40273.2
39456.9
38651.3
37856.6
37072.6
36299.5
35537.2
34785.9
34045.5
33316
32597.4
31889.8
31193.1
30507.3
29832.4
29168.3
28515.1
27872.7
27241
26620.1
26009.8
25410.1
24821
24242.4
23674.2
23116.3
22568.8
22031.4
21504.2
20987
20479.8
19982.4
19494.8
19016.9
18548.6
18089.7
17640.2
17200
16769
16347
15934
15529.8
15134.3
14747.5
14369.1
13999.2
13637.4
13283.9
12938.3
12600.7
12270.8
11948.6
11633.9
11326.6
11026.6
10733.9
10448.1
10169.3
9897.26
9631.93
9373.15
9120.82
8874.81
8635
8401.27
8173.5
7951.58
7735.38
7524.8
7319.72
7120.01
6925.58
6736.3
6552.07
6372.77
6198.3
6028.55
5863.42
5702.8
5546.58
5394.66
5246.95
5103.35
4963.75
4828.06
4696.19
4568.04
4443.52
4322.54
4205.01
4090.85
3979.96
3872.28
3767.7
3666.16
3567.57
3471.85
3378.94
3288.74
3201.2
3116.24
3033.79
2953.77
2876.14
2800.81
2727.72
2656.82
2588.04
2521.32
2456.6
2393.83
2332.95
2273.9
2216.65
2161.12
2107.27
2055.06
2004.44
1955.36
1907.77
1861.63
1816.91
1773.55
1731.51
1690.77
1651.27
1612.99
1575.88
1539.91
1505.05
1471.27
1438.53
1406.8
1376.05
1346.25
1317.38
1289.4
1262.29
1236.02
1210.57
1185.92
1162.03
1138.89
1116.48
1094.76
1073.73
1053.36
1033.64
1014.53
996.035
978.123
960.781
943.991
927.738
912.006
896.78
882.046
867.788
853.994
840.649
827.742
815.26
803.19
791.521
780.242
769.341
758.809
748.635
738.809
729.322
720.164
711.326
702.801
694.578
686.651
679.011
671.651
664.563
657.74
651.176
644.864
638.797
632.968
627.373
622.005
616.857
611.926
607.204
602.687
598.37
594.248
590.315
586.568
583.001
579.61
576.391
573.339
570.451
567.722
565.149
562.726
560.451
558.32
556.329
554.475
552.753
551.16
549.692
548.346
547.117
546.001
544.992
544.084
543.269
542.535
541.866
541.238
540.616
539.941
539.124
538.023
536.407
533.903
529.891
523.367
512.732
495.605
468.956
430.555
383.14
339.195
313.071
303.468
300.858
300.212
300.052
300.013
300.003
300.001
300
300
300
300
300
300
300
300
300
300
300
300
300
300
300
300
300
300
300
300
300
300
300
300
300
300
300
300
300
300
300
300
300
300
300
300
300
300
300
300
300
300
300
300
300
300
300
300
300
300
300
300
300
300
300
300
300
300
300
300
300
300
300
300
300
300
300
300
300
300
300
300
300
300
300
300
300
300
300
300
300
300
300
300
300
300
300
300
300
300
300
300
300
300
300
300
300
300
300
300
300
300
300
300
300
300
300
300
300
300
300
300
300
300
300
300
300
300
300
300
300
300
300
300
300
300
300
300
300
300
300
300
300
300
300
300
300
300
300
300
300
300
300
300
)
;

boundaryField
{
    wedge0
    {
        type            wedge;
    }
    wedge1
    {
        type            wedge;
    }
    wedge2
    {
        type            wedge;
    }
    wedge3
    {
        type            wedge;
    }
    outlet
    {
        type            zeroGradient;
    }
    defaultFaces
    {
        type            empty;
    }
}


// ************************************************************************* //
