/*--------------------------------*- C++ -*----------------------------------*\
| =========                 |                                                 |
| \\      /  F ield         | OpenFOAM: The Open Source CFD Toolbox           |
|  \\    /   O peration     | Version:  2312                                  |
|   \\  /    A nd           | Website:  www.openfoam.com                      |
|    \\/     M anipulation  |                                                 |
\*---------------------------------------------------------------------------*/
FoamFile
{
    version     2.0;
    format      ascii;
    arch        "LSB;label=32;scalar=64";
    class       volScalarField;
    location    "0.00021";
    object      thermo:e;
}
// * * * * * * * * * * * * * * * * * * * * * * * * * * * * * * * * * * * * * //

dimensions      [0 2 -2 0 0 0 0];

internalField   nonuniform List<scalar> 
500
(
9.94997e+07
9.94856e+07
9.94514e+07
9.9398e+07
9.93258e+07
9.92349e+07
9.91256e+07
9.8998e+07
9.88522e+07
9.86883e+07
9.85064e+07
9.83065e+07
9.8089e+07
9.78538e+07
9.76012e+07
9.73312e+07
9.70441e+07
9.674e+07
9.6419e+07
9.60815e+07
9.57275e+07
9.53572e+07
9.4971e+07
9.45689e+07
9.41513e+07
9.37183e+07
9.32703e+07
9.28074e+07
9.23299e+07
9.18382e+07
9.13323e+07
9.08127e+07
9.02796e+07
8.97333e+07
8.91741e+07
8.86023e+07
8.80182e+07
8.74221e+07
8.68143e+07
8.61952e+07
8.55651e+07
8.49242e+07
8.42729e+07
8.36116e+07
8.29406e+07
8.22602e+07
8.15708e+07
8.08726e+07
8.01661e+07
7.94516e+07
7.87294e+07
7.79999e+07
7.72634e+07
7.65203e+07
7.57709e+07
7.50155e+07
7.42546e+07
7.34884e+07
7.27173e+07
7.19416e+07
7.11617e+07
7.03779e+07
6.95905e+07
6.87999e+07
6.80064e+07
6.72104e+07
6.64121e+07
6.56119e+07
6.48102e+07
6.40071e+07
6.3203e+07
6.23983e+07
6.15933e+07
6.07882e+07
5.99833e+07
5.91789e+07
5.83754e+07
5.75729e+07
5.67718e+07
5.59724e+07
5.51748e+07
5.43794e+07
5.35864e+07
5.27961e+07
5.20087e+07
5.12245e+07
5.04437e+07
4.96664e+07
4.8893e+07
4.81236e+07
4.73585e+07
4.65978e+07
4.58418e+07
4.50906e+07
4.43445e+07
4.36035e+07
4.2868e+07
4.2138e+07
4.14136e+07
4.06952e+07
3.99827e+07
3.92764e+07
3.85764e+07
3.78828e+07
3.71957e+07
3.65153e+07
3.58417e+07
3.51749e+07
3.45151e+07
3.38623e+07
3.32167e+07
3.25784e+07
3.19473e+07
3.13237e+07
3.07074e+07
3.00987e+07
2.94976e+07
2.89041e+07
2.83182e+07
2.77401e+07
2.71696e+07
2.6607e+07
2.60521e+07
2.55051e+07
2.49658e+07
2.44344e+07
2.39109e+07
2.33952e+07
2.28873e+07
2.23873e+07
2.18951e+07
2.14107e+07
2.09341e+07
2.04653e+07
2.00042e+07
1.95509e+07
1.91052e+07
1.86672e+07
1.82368e+07
1.7814e+07
1.73987e+07
1.69909e+07
1.65906e+07
1.61976e+07
1.58119e+07
1.54335e+07
1.50624e+07
1.46983e+07
1.43414e+07
1.39914e+07
1.36484e+07
1.33123e+07
1.2983e+07
1.26604e+07
1.23445e+07
1.20351e+07
1.17323e+07
1.14358e+07
1.11457e+07
1.08619e+07
1.05843e+07
1.03127e+07
1.00472e+07
9.78759e+06
9.53383e+06
9.28582e+06
9.04349e+06
8.80674e+06
8.57548e+06
8.34964e+06
8.12911e+06
7.91383e+06
7.70368e+06
7.4986e+06
7.29849e+06
7.10326e+06
6.91283e+06
6.72711e+06
6.54601e+06
6.36945e+06
6.19734e+06
6.02959e+06
5.86612e+06
5.70685e+06
5.55169e+06
5.40055e+06
5.25336e+06
5.11003e+06
4.97049e+06
4.83464e+06
4.70242e+06
4.57374e+06
4.44852e+06
4.32669e+06
4.20818e+06
4.0929e+06
3.98078e+06
3.87175e+06
3.76574e+06
3.66267e+06
3.56248e+06
3.4651e+06
3.37045e+06
3.27848e+06
3.18911e+06
3.10229e+06
3.01794e+06
2.936e+06
2.85642e+06
2.77913e+06
2.70408e+06
2.6312e+06
2.56044e+06
2.49175e+06
2.42506e+06
2.36033e+06
2.2975e+06
2.23652e+06
2.17735e+06
2.11992e+06
2.0642e+06
2.01014e+06
1.95769e+06
1.9068e+06
1.85743e+06
1.80955e+06
1.7631e+06
1.71805e+06
1.67436e+06
1.63198e+06
1.59089e+06
1.55103e+06
1.51239e+06
1.47492e+06
1.43859e+06
1.40336e+06
1.36921e+06
1.33609e+06
1.30399e+06
1.27287e+06
1.24271e+06
1.21346e+06
1.18512e+06
1.15764e+06
1.13101e+06
1.1052e+06
1.08018e+06
1.05593e+06
1.03243e+06
1.00966e+06
987591
966205
945482
925402
905945
887093
868828
851133
833990
817382
801295
785712
770618
756000
741842
728131
714854
701999
689552
677502
665838
654547
643619
633044
622811
612911
603334
594071
585112
576449
568075
559980
552156
544597
537296
530243
523434
516862
510519
504400
498499
492809
487326
482044
476957
472060
467349
462819
458464
454281
450266
446413
442719
439179
435790
432549
429450
426491
423669
420980
418420
415986
413676
411486
409413
407454
405607
403869
402236
400706
399277
397946
396711
395567
394514
393548
392666
391865
391141
390489
389904
389377
388897
388447
388000
387516
386930
386139
384980
383182
380303
375620
367988
355695
336570
309009
274980
243441
224691
217799
215926
215462
215348
215319
215312
215311
215310
215310
215310
215310
215310
215310
215310
215310
215310
215310
215310
215310
215310
215310
215310
215310
215310
215310
215310
215310
215310
215310
215310
215310
215310
215310
215310
215310
215310
215310
215310
215310
215310
215310
215310
215310
215310
215310
215310
215310
215310
215310
215310
215310
215310
215310
215310
215310
215310
215310
215310
215310
215310
215310
215310
215310
215310
215310
215310
215310
215310
215310
215310
215310
215310
215310
215310
215310
215310
215310
215310
215310
215310
215310
215310
215310
215310
215310
215310
215310
215310
215310
215310
215310
215310
215310
215310
215310
215310
215310
215310
215310
215310
215310
215310
215310
215310
215310
215310
215310
215310
215310
215310
215310
215310
215310
215310
215310
215310
215310
215310
215310
215310
215310
215310
215310
215310
215310
215310
215310
215310
215310
215310
215310
215310
215310
215310
215310
215310
215310
215310
215310
215310
215310
215310
215310
215310
215310
215310
215310
215310
215310
215310
215310
)
;

boundaryField
{
    wedge0
    {
        type            wedge;
    }
    wedge1
    {
        type            wedge;
    }
    wedge2
    {
        type            wedge;
    }
    wedge3
    {
        type            wedge;
    }
    outlet
    {
        type            zeroGradient;
    }
    defaultFaces
    {
        type            empty;
    }
}


// ************************************************************************* //
