/*--------------------------------*- C++ -*----------------------------------*\
| =========                 |                                                 |
| \\      /  F ield         | OpenFOAM: The Open Source CFD Toolbox           |
|  \\    /   O peration     | Version:  2312                                  |
|   \\  /    A nd           | Website:  www.openfoam.com                      |
|    \\/     M anipulation  |                                                 |
\*---------------------------------------------------------------------------*/
FoamFile
{
    version     2.0;
    format      ascii;
    arch        "LSB;label=32;scalar=64";
    class       volVectorField;
    location    "0.00021";
    object      U;
}
// * * * * * * * * * * * * * * * * * * * * * * * * * * * * * * * * * * * * * //

dimensions      [0 1 -1 0 0 0 0];

internalField   nonuniform List<vector> 
500
(
(1.01584 -3.31858e-10 3.34581e-10)
(1.82894 -3.23512e-10 3.23823e-10)
(2.73586 -3.32493e-10 3.32386e-10)
(3.69914 -3.33546e-10 3.32344e-10)
(4.68489 -3.18097e-10 3.15959e-10)
(5.68152 -3.17939e-10 3.15962e-10)
(6.68418 -3.14861e-10 3.12181e-10)
(7.69053 -3.09172e-10 3.06714e-10)
(8.69929 -2.96729e-10 2.94179e-10)
(9.70973 -2.80549e-10 2.77922e-10)
(10.7214 -2.67021e-10 2.64479e-10)
(11.7339 -2.53463e-10 2.51218e-10)
(12.7471 -2.40145e-10 2.37881e-10)
(13.7609 -2.26827e-10 2.24553e-10)
(14.7751 -2.13137e-10 2.11388e-10)
(15.7897 -2.01525e-10 2.00518e-10)
(16.8045 -1.90347e-10 1.89689e-10)
(17.8196 -1.84045e-10 1.83707e-10)
(18.8349 -1.77426e-10 1.77367e-10)
(19.8504 -1.75028e-10 1.75016e-10)
(20.8661 -1.7272e-10 1.72735e-10)
(21.8818 -1.71265e-10 1.71268e-10)
(22.8977 -1.68579e-10 1.68587e-10)
(23.9137 -1.67441e-10 1.67443e-10)
(24.9298 -1.64315e-10 1.64318e-10)
(25.946 -1.60396e-10 1.60402e-10)
(26.9623 -1.57257e-10 1.57254e-10)
(27.9787 -1.53839e-10 1.5384e-10)
(28.9951 -1.48122e-10 1.48122e-10)
(30.0116 -1.43618e-10 1.43614e-10)
(31.0281 -1.38771e-10 1.38766e-10)
(32.0447 -1.33953e-10 1.33948e-10)
(33.0614 -1.28469e-10 1.28471e-10)
(34.0781 -1.22706e-10 1.22707e-10)
(35.0948 -1.17785e-10 1.17785e-10)
(36.1116 -1.12616e-10 1.12616e-10)
(37.1285 -1.07423e-10 1.07423e-10)
(38.1453 -1.02714e-10 1.02714e-10)
(39.1623 -9.87141e-11 9.87141e-11)
(40.1793 -9.44912e-11 9.44912e-11)
(41.1963 -8.93158e-11 8.93158e-11)
(42.2133 -8.33384e-11 8.33384e-11)
(43.2304 -7.71861e-11 7.71861e-11)
(44.2475 -7.2016e-11 7.2016e-11)
(45.2647 -6.64529e-11 6.64529e-11)
(46.2819 -6.11533e-11 6.11533e-11)
(47.2992 -5.55062e-11 5.55062e-11)
(48.3165 -5.01619e-11 5.01619e-11)
(49.3338 -4.40198e-11 4.40198e-11)
(50.3511 -3.86592e-11 3.86592e-11)
(51.3686 -3.36136e-11 3.36136e-11)
(52.386 -2.92598e-11 2.92598e-11)
(53.4035 -2.46255e-11 2.46255e-11)
(54.421 -2.03778e-11 2.03778e-11)
(55.4385 -1.65859e-11 1.65859e-11)
(56.4561 -1.25229e-11 1.25229e-11)
(57.4738 -8.98549e-12 8.98549e-12)
(58.4915 -5.93798e-12 5.93798e-12)
(59.5092 -3.02939e-12 3.02939e-12)
(60.5269 -2.21005e-13 2.21005e-13)
(61.5447 1.51258e-12 -1.51258e-12)
(62.5626 2.90873e-12 -2.90873e-12)
(63.5805 4.0642e-12 -4.0642e-12)
(64.5984 4.89712e-12 -4.89712e-12)
(65.6164 5.42932e-12 -5.42932e-12)
(66.6344 5.67828e-12 -5.67828e-12)
(67.6525 6.0428e-12 -6.0428e-12)
(68.6706 6.65307e-12 -6.65307e-12)
(69.6888 6.5218e-12 -6.5218e-12)
(70.707 6.35597e-12 -6.35597e-12)
(71.7253 6.19028e-12 -6.19028e-12)
(72.7436 5.95334e-12 -5.95334e-12)
(73.762 5.79953e-12 -5.79953e-12)
(74.7805 5.62951e-12 -5.62951e-12)
(75.799 5.66016e-12 -5.66023e-12)
(76.8175 5.6411e-12 -5.64003e-12)
(77.8361 5.43202e-12 -5.43015e-12)
(78.8548 5.08451e-12 -5.08296e-12)
(79.8735 4.87897e-12 -4.8764e-12)
(80.8923 4.54313e-12 -4.51486e-12)
(81.9112 4.20163e-12 -4.10705e-12)
(82.9301 3.7129e-12 -3.55124e-12)
(83.9491 3.0853e-12 -2.85905e-12)
(84.9681 2.16813e-12 -1.87865e-12)
(85.9872 9.81763e-13 -6.30664e-13)
(87.0064 -3.9908e-13 6.46629e-13)
(88.0257 -1.49228e-12 1.63585e-12)
(89.0451 -2.37419e-12 2.48783e-12)
(90.0645 -2.99078e-12 3.07407e-12)
(91.084 -3.39544e-12 3.42858e-12)
(92.1036 -3.58708e-12 3.54606e-12)
(93.1233 -3.5459e-12 3.43065e-12)
(94.143 -3.47867e-12 3.45385e-12)
(95.1629 -3.26926e-12 3.26251e-12)
(96.1828 -2.85176e-12 2.8603e-12)
(97.2028 -2.34815e-12 2.26194e-12)
(98.223 -2.03037e-12 1.82312e-12)
(99.2432 -1.58673e-12 1.5841e-12)
(100.264 -1.16202e-12 1.17707e-12)
(101.284 -7.38312e-13 7.74447e-13)
(102.304 -4.97255e-13 5.54722e-13)
(103.325 -3.40959e-13 4.1479e-13)
(104.346 -9.36371e-14 1.06584e-13)
(105.367 2.19449e-13 -2.31872e-13)
(106.388 6.91806e-13 -7.28892e-13)
(107.409 1.3208e-12 -1.35313e-12)
(108.43 1.79804e-12 -1.8255e-12)
(109.451 2.42758e-12 -2.45022e-12)
(110.473 2.92016e-12 -2.93757e-12)
(111.495 3.41317e-12 -3.42466e-12)
(112.516 3.77849e-12 -3.78465e-12)
(113.538 4.02332e-12 -4.02398e-12)
(114.56 3.98516e-12 -3.98557e-12)
(115.583 4.01189e-12 -4.01694e-12)
(116.605 4.16872e-12 -4.1779e-12)
(117.627 4.13066e-12 -4.14098e-12)
(118.65 3.88915e-12 -3.89424e-12)
(119.673 3.76437e-12 -3.76441e-12)
(120.696 3.73693e-12 -3.73599e-12)
(121.719 3.61109e-12 -3.61037e-12)
(122.743 3.80121e-12 -3.80026e-12)
(123.766 3.90193e-12 -3.90148e-12)
(124.79 3.71941e-12 -3.71857e-12)
(125.814 3.44692e-12 -3.44592e-12)
(126.838 3.17232e-12 -3.17184e-12)
(127.863 2.92468e-12 -2.92397e-12)
(128.887 2.59102e-12 -2.59056e-12)
(129.912 2.17103e-12 -2.17037e-12)
(130.937 1.69311e-12 -1.69283e-12)
(131.963 1.21774e-12 -1.21735e-12)
(132.988 8.03456e-13 -8.0289e-13)
(134.014 4.49131e-13 -4.48505e-13)
(135.04 1.55833e-13 -1.55139e-13)
(136.067 -7.29694e-14 7.36642e-14)
(137.094 -3.01433e-13 3.0212e-13)
(138.121 -3.28906e-13 3.29243e-13)
(139.148 -1.53994e-13 1.5432e-13)
(140.176 -1.72179e-13 1.7218e-13)
(141.203 -1.90314e-13 1.90314e-13)
(142.232 -1.89914e-13 1.89914e-13)
(143.26 -1.88777e-13 1.88777e-13)
(144.289 -1.87645e-13 1.87645e-13)
(145.319 -2.13599e-13 2.13599e-13)
(146.348 -1.84658e-13 1.84658e-13)
(147.378 -1.83797e-13 1.83797e-13)
(148.409 -1.64184e-13 1.64184e-13)
(149.44 -1.96761e-13 1.96761e-13)
(150.471 -1.8105e-13 1.8105e-13)
(151.503 -1.36588e-13 1.36577e-13)
(152.535 -4.1471e-14 4.1624e-14)
(153.568 -8.42877e-14 8.45997e-14)
(154.601 -1.61214e-13 1.61513e-13)
(155.635 -1.06674e-13 1.06961e-13)
(156.669 -7.65922e-14 7.68686e-14)
(157.704 -1.74666e-13 1.74763e-13)
(158.739 -1.63227e-13 1.63316e-13)
(159.775 -1.71839e-13 1.71864e-13)
(160.811 -2.15886e-13 2.15815e-13)
(161.848 -1.46848e-13 1.4693e-13)
(162.886 -1.87754e-13 1.8794e-13)
(163.924 -1.95026e-13 1.95175e-13)
(164.964 -1.67473e-13 1.6755e-13)
(166.003 -1.54819e-13 1.54873e-13)
(167.044 -2.44082e-13 2.44068e-13)
(168.085 -1.73838e-13 1.73911e-13)
(169.127 -1.63971e-13 1.64129e-13)
(170.17 -1.63473e-13 1.63397e-13)
(171.213 -1.33133e-13 1.33029e-13)
(172.258 -1.618e-13 1.61896e-13)
(173.303 -2.44883e-13 2.44892e-13)
(174.349 -3.44187e-13 3.44243e-13)
(175.396 -5.14682e-13 5.14614e-13)
(176.445 -6.52812e-13 6.5282e-13)
(177.494 -7.58346e-13 7.58324e-13)
(178.544 -8.29684e-13 8.29633e-13)
(179.595 -8.64201e-13 8.64188e-13)
(180.648 -8.58924e-13 8.58996e-13)
(181.701 -8.10147e-13 8.10067e-13)
(182.756 -7.12317e-13 7.12205e-13)
(183.812 -5.44943e-13 5.44831e-13)
(184.869 -4.03721e-13 4.03392e-13)
(185.928 -2.93584e-13 2.9332e-13)
(186.988 -2.127e-13 2.12623e-13)
(188.049 -1.63925e-13 1.63896e-13)
(189.112 -1.50749e-13 1.50768e-13)
(190.176 -1.31005e-13 1.30934e-13)
(191.242 -6.8719e-14 6.85671e-14)
(192.31 -3.51108e-14 3.48659e-14)
(193.379 0 0)
(194.45 2.39424e-14 -2.39424e-14)
(195.523 6.20246e-14 -6.20246e-14)
(196.597 7.22488e-14 -7.22488e-14)
(197.674 5.0279e-14 -5.0279e-14)
(198.753 2.51832e-14 -2.51832e-14)
(199.833 2.86301e-14 -2.86301e-14)
(200.916 0 0)
(202.001 -3.14282e-14 3.1421e-14)
(203.088 -3.90861e-14 3.9132e-14)
(204.178 -1.82021e-14 1.83519e-14)
(205.27 3.81466e-14 -3.78933e-14)
(206.364 8.00143e-14 -7.97017e-14)
(207.462 1.05106e-13 -1.04758e-13)
(208.561 1.17514e-13 -1.17196e-13)
(209.664 1.07256e-13 -1.0697e-13)
(210.77 7.21427e-14 -7.18582e-14)
(211.878 5.43656e-14 -5.41286e-14)
(212.99 5.81152e-14 -5.78425e-14)
(214.105 3.83193e-14 -3.80442e-14)
(215.223 3.77325e-14 -3.74796e-14)
(216.344 1.28833e-14 -1.26865e-14)
(217.47 -3.26838e-15 3.49282e-15)
(218.598 -1.7256e-14 1.7352e-14)
(219.731 -5.86902e-14 5.87779e-14)
(220.867 -9.38585e-14 9.3927e-14)
(222.008 -1.353e-13 1.35368e-13)
(223.152 -1.73725e-13 1.73783e-13)
(224.301 -1.66768e-13 1.66807e-13)
(225.455 -1.39207e-13 1.39256e-13)
(226.613 -1.1807e-13 1.18113e-13)
(227.775 -1.06081e-13 1.06086e-13)
(228.943 -1.01185e-13 1.01188e-13)
(230.116 -9.63153e-14 9.62979e-14)
(231.293 -9.19591e-14 9.19474e-14)
(232.477 -7.92598e-14 7.92598e-14)
(233.666 -4.76346e-14 4.76346e-14)
(234.86 -5.51487e-14 5.51487e-14)
(236.061 -6.50098e-14 6.50098e-14)
(237.267 -9.91532e-14 9.91532e-14)
(238.48 -1.03278e-13 1.03278e-13)
(239.699 -1.29229e-13 1.29229e-13)
(240.926 -1.62332e-13 1.62332e-13)
(242.158 -1.70862e-13 1.70862e-13)
(243.399 -1.77135e-13 1.77135e-13)
(244.646 -1.78517e-13 1.78517e-13)
(245.901 -1.85629e-13 1.85629e-13)
(247.164 -1.87683e-13 1.87683e-13)
(248.435 -1.81774e-13 1.81774e-13)
(249.714 -1.81704e-13 1.81704e-13)
(251.001 -1.72754e-13 1.72754e-13)
(252.298 -1.72434e-13 1.72434e-13)
(253.603 -1.91498e-13 1.91498e-13)
(254.918 -1.93161e-13 1.93161e-13)
(256.242 -1.89093e-13 1.89093e-13)
(257.576 -1.48253e-13 1.48253e-13)
(258.92 -1.17737e-13 1.17737e-13)
(260.274 -1.04021e-13 1.04021e-13)
(261.639 -1.20357e-13 1.20357e-13)
(263.015 -1.18343e-13 1.18343e-13)
(264.402 -1.06669e-13 1.06669e-13)
(265.801 -1.24758e-13 1.24758e-13)
(267.211 -1.29571e-13 1.29571e-13)
(268.634 -1.32811e-13 1.32811e-13)
(270.069 -1.33352e-13 1.33352e-13)
(271.517 -1.28703e-13 1.28703e-13)
(272.978 -1.1739e-13 1.1739e-13)
(274.453 -1.09955e-13 1.09955e-13)
(275.941 -1.10185e-13 1.10185e-13)
(277.443 -1.16812e-13 1.16812e-13)
(278.96 -1.04623e-13 1.04623e-13)
(280.491 -9.30654e-14 9.30654e-14)
(282.038 -8.20159e-14 8.20159e-14)
(283.6 -7.10116e-14 7.10116e-14)
(285.178 -5.91732e-14 5.91732e-14)
(286.772 -4.41734e-14 4.41734e-14)
(288.383 -2.4778e-14 2.4778e-14)
(290.01 -1.20338e-14 1.20338e-14)
(291.655 9.47738e-15 -9.47738e-15)
(293.317 1.61507e-14 -1.61507e-14)
(294.997 2.53586e-14 -2.53586e-14)
(296.695 3.2186e-14 -3.2186e-14)
(298.412 3.36503e-14 -3.36503e-14)
(300.148 2.62943e-14 -2.62943e-14)
(301.904 1.93742e-14 -1.93742e-14)
(303.679 1.28364e-14 -1.28364e-14)
(305.474 5.98077e-15 -5.98077e-15)
(307.289 -4.61829e-15 4.61829e-15)
(309.125 -9.78341e-15 9.78341e-15)
(310.983 -8.40524e-15 8.40524e-15)
(312.861 -3.22037e-15 3.22037e-15)
(314.761 0 5.06393e-34)
(316.683 0 7.91649e-35)
(318.628 1.04339e-15 -1.04339e-15)
(320.595 1.28329e-14 -1.28329e-14)
(322.585 1.42637e-14 -1.42637e-14)
(324.598 3.21978e-15 -3.21978e-15)
(326.635 -1.19326e-16 1.19326e-16)
(328.695 0 6.82776e-35)
(330.779 0 0)
(332.888 -1.18364e-14 1.18364e-14)
(335.021 -1.2608e-14 1.2608e-14)
(337.178 -8.26259e-15 8.26259e-15)
(339.36 1.08034e-15 -1.08034e-15)
(341.568 -8.96162e-15 8.96162e-15)
(343.8 -4.4987e-15 4.4987e-15)
(346.058 -8.40546e-16 8.40546e-16)
(348.342 7.5152e-15 -7.5152e-15)
(350.651 -2.22818e-15 2.22818e-15)
(352.986 0 4.53604e-35)
(355.347 0 0)
(357.734 0 4.18576e-35)
(360.146 -7.66436e-15 7.66436e-15)
(362.585 -3.01199e-17 3.01199e-17)
(365.05 -7.95719e-15 7.95719e-15)
(367.541 -4.49693e-15 4.49693e-15)
(370.057 3.25789e-15 -3.25789e-15)
(372.6 4.93846e-16 -4.93846e-16)
(375.169 0 3.1745e-35)
(377.764 0 0)
(380.384 -8.00958e-15 8.00958e-15)
(383.03 -1.44432e-14 1.44432e-14)
(385.702 -1.14411e-14 1.14411e-14)
(388.399 -8.61078e-15 8.61078e-15)
(391.121 -5.94438e-15 5.94438e-15)
(393.868 -3.40477e-15 3.40477e-15)
(396.64 2.62692e-15 -2.62692e-15)
(399.437 4.81736e-16 -4.81736e-16)
(402.257 -4.28652e-16 4.28652e-16)
(405.102 -2.25374e-16 2.25374e-16)
(407.971 -2.36693e-15 2.36693e-15)
(410.862 -6.40231e-15 6.40231e-15)
(413.777 -1.00493e-14 1.00493e-14)
(416.713 -1.33154e-14 1.33154e-14)
(419.672 -1.55605e-14 1.55605e-14)
(422.65 -1.84945e-14 1.84945e-14)
(425.648 -2.12131e-14 2.12131e-14)
(428.663 -2.32602e-14 2.32602e-14)
(431.694 -2.10276e-14 2.10276e-14)
(434.736 -1.82883e-14 1.82883e-14)
(437.784 -1.4826e-14 1.4826e-14)
(440.83 -1.16889e-14 1.16889e-14)
(443.862 -8.6575e-15 8.6575e-15)
(446.861 -5.80183e-15 5.80183e-15)
(449.797 -3.8797e-15 3.8797e-15)
(452.623 -6.31019e-15 6.31019e-15)
(455.264 -8.56975e-15 8.56975e-15)
(457.6 -7.12984e-15 7.12984e-15)
(459.443 -5.22606e-15 5.22606e-15)
(460.481 -4.27334e-15 4.27334e-15)
(460.21 -3.27596e-15 3.27596e-15)
(457.819 -2.24979e-15 2.24979e-15)
(451.993 -1.91981e-15 1.91981e-15)
(440.641 -4.31529e-15 4.31529e-15)
(420.546 -3.89433e-15 3.89433e-15)
(387.11 -2.43642e-15 2.43642e-15)
(334.877 5.3696e-16 -5.3696e-16)
(260.452 3.08866e-16 -3.08866e-16)
(169.669 2.14599e-15 -2.14599e-15)
(84.6503 0 0)
(30.9964 -2.75169e-15 2.75169e-15)
(9.03157 -2.56848e-15 2.56848e-15)
(2.37363 -5.64615e-15 5.64615e-15)
(0.602194 -5.02264e-15 5.02264e-15)
(0.150774 -6.9581e-16 6.9581e-16)
(0.0374777 0 0)
(0.00926302 0 0)
(0.00227746 1.78892e-15 -1.78892e-15)
(0.000557092 0 0)
(0.000135585 -4.24304e-15 4.24304e-15)
(3.28346e-05 -4.93488e-15 4.93488e-15)
(7.91231e-06 -2.11276e-15 2.11276e-15)
(1.89734e-06 -2.79118e-15 2.79118e-15)
(4.52773e-07 0 0)
(1.07532e-07 0 0)
(2.5421e-08 -1.71208e-15 1.71208e-15)
(5.98705e-09 -1.23112e-18 1.23112e-18)
(1.41031e-09 -1.69349e-15 1.69349e-15)
(3.35202e-10 0 0)
(7.50714e-11 1.67421e-15 -1.67421e-15)
(3.75226e-12 0 0)
(-1.4116e-11 0 0)
(-1.43149e-11 -7.99016e-16 7.99016e-16)
(-1.63901e-11 -4.87485e-15 4.87485e-15)
(-2.17787e-11 -5.66711e-15 5.66711e-15)
(-2.84332e-11 -9.70046e-15 9.70046e-15)
(-2.75278e-11 -1.048e-14 1.048e-14)
(-3.07082e-11 -8.04028e-15 8.04028e-15)
(-3.37589e-11 -2.41559e-15 2.41559e-15)
(-2.31531e-11 0 0)
(-5.03834e-12 0 0)
(9.23399e-12 1.57126e-15 -1.57126e-15)
(-1.44187e-14 2.71733e-18 -2.71733e-18)
(-1.70416e-11 1.55473e-15 -1.55473e-15)
(-2.16535e-11 0 0)
(-1.52975e-11 0 0)
(-1.24389e-11 -1.52754e-15 1.52754e-15)
(-2.60875e-11 0 0)
(-3.21533e-11 0 0)
(-1.69446e-11 0 0)
(5.02935e-13 2.99668e-15 -2.99668e-15)
(2.92357e-12 2.98913e-15 -2.98913e-15)
(4.65714e-12 8.73602e-18 -8.73602e-18)
(1.78294e-11 0 0)
(1.41437e-11 0 0)
(8.55641e-13 1.46027e-15 -1.46027e-15)
(-4.02997e-12 0 0)
(6.69454e-12 0 0)
(2.40088e-11 0 0)
(3.43232e-11 0 0)
(2.98934e-11 0 0)
(1.9211e-11 0 0)
(1.22743e-11 0 0)
(8.74771e-12 0 0)
(2.26818e-11 5.96133e-16 -5.96133e-16)
(4.31217e-11 3.97407e-15 -3.97407e-15)
(3.8955e-11 1.01029e-14 -1.01029e-14)
(2.14046e-11 1.34448e-14 -1.34448e-14)
(1.14345e-11 1.40275e-14 -1.40275e-14)
(3.60291e-12 6.41929e-15 -6.41929e-15)
(-8.0774e-12 1.56298e-15 -1.56298e-15)
(-1.82555e-11 -5.6901e-16 5.6901e-16)
(-2.13561e-11 0 0)
(-3.84377e-12 0 0)
(1.11113e-11 0 0)
(7.03926e-12 0 0)
(1.49e-11 0 0)
(1.85656e-11 0 0)
(1.3152e-11 0 0)
(1.11139e-12 0 0)
(1.83264e-12 -8.62114e-16 8.62114e-16)
(2.38616e-11 8.55204e-16 -8.55204e-16)
(3.77332e-11 0 0)
(4.13462e-11 0 0)
(2.32769e-11 -1.26877e-15 1.26877e-15)
(1.31912e-11 -4.35249e-18 4.35249e-18)
(9.72928e-12 -1.25754e-15 1.25754e-15)
(-5.25805e-12 -4.07145e-18 4.07145e-18)
(-1.56478e-11 -1.24359e-15 1.24359e-15)
(-1.96808e-11 0 0)
(-1.34615e-11 -8.22045e-16 8.22045e-16)
(-1.10325e-11 8.16207e-16 -8.16207e-16)
(-8.89688e-12 0 0)
(-2.93847e-11 1.21221e-15 -1.21221e-15)
(-3.5458e-11 -2.09239e-18 2.09239e-18)
(-1.77447e-11 1.20262e-15 -1.20262e-15)
(5.17515e-12 0 0)
(2.46198e-11 7.97403e-16 -7.97403e-16)
(3.39051e-11 -7.88676e-16 7.88676e-16)
(2.91019e-11 0 0)
(8.02506e-12 -9.22231e-16 9.22231e-16)
(-2.48574e-12 -4.1856e-15 4.1856e-15)
(-5.69243e-12 -9.7685e-15 9.7685e-15)
(-9.8765e-12 -8.35235e-15 8.35235e-15)
(-1.45684e-11 0 0)
(-2.74937e-11 8.27344e-15 -8.27344e-15)
(-2.34176e-11 9.62977e-15 -9.62977e-15)
(-7.65083e-12 4.13094e-15 -4.13094e-15)
(-6.51849e-12 9.27119e-16 -9.27119e-16)
(1.7175e-11 0 0)
(4.69552e-11 9.54766e-16 -9.54766e-16)
(4.86402e-11 4.14426e-15 -4.14426e-15)
(2.73671e-11 6.24716e-16 -6.24716e-16)
(2.75477e-11 -1.86578e-15 1.86578e-15)
(3.39655e-11 -6.55787e-15 6.55787e-15)
(2.26285e-11 -4.62021e-15 4.62021e-15)
(1.79682e-11 -4.88407e-15 4.88407e-15)
(1.25808e-11 -7.32921e-15 7.32921e-15)
(6.63467e-12 -1.19373e-14 1.19373e-14)
(2.89592e-12 -1.86892e-14 1.86892e-14)
(7.86073e-13 -2.70976e-14 2.70976e-14)
(-1.10027e-11 -2.98705e-14 2.98705e-14)
(-2.19937e-11 -2.93573e-14 2.93573e-14)
(-2.40598e-11 -2.65596e-14 2.65596e-14)
(-2.9689e-11 -1.73069e-14 1.73069e-14)
(-2.61897e-11 -9.80134e-15 9.80134e-15)
(-1.34066e-11 -4.42715e-15 4.42715e-15)
(-9.7467e-12 -1.16634e-15 1.16634e-15)
(5.01852e-12 0 0)
(2.74665e-11 0 0)
(1.28391e-11 0 0)
(-5.31288e-12 0 0)
(-9.48016e-12 0 0)
(5.25138e-13 6.73757e-16 -6.73757e-16)
(9.54309e-12 3.28775e-15 -3.28775e-15)
(-8.58088e-12 -1.70447e-16 1.70447e-16)
(-2.71137e-11 -5.62469e-15 5.62469e-15)
(-2.13768e-11 -5.04451e-15 5.04451e-15)
(-2.38154e-12 -6.46141e-15 6.46141e-15)
(7.82046e-12 -1.91121e-15 1.91121e-15)
(5.71095e-12 6.41744e-16 -6.41744e-16)
(-1.09567e-11 3.70495e-15 -3.70495e-15)
(-3.17505e-11 8.70948e-16 -8.70948e-16)
(-3.17026e-11 0 0)
(-1.47761e-11 0 0)
(-2.17587e-11 -3.55736e-16 3.55736e-16)
(-2.71911e-11 -2.63909e-15 2.63909e-15)
(-6.13559e-12 -6.83273e-15 6.83273e-15)
(1.47271e-11 -5.2676e-15 5.2676e-15)
(2.39084e-11 -9.42753e-15 9.42753e-15)
(5.84e-12 -1.54674e-14 1.54674e-14)
(-1.92328e-11 -2.32402e-14 2.32402e-14)
(-2.49023e-11 -2.53304e-14 2.53304e-14)
(-2.06927e-11 -2.35941e-14 2.35941e-14)
(-1.00758e-11 -1.6258e-14 1.6258e-14)
(6.41595e-12 -1.06812e-14 1.06812e-14)
(2.02513e-11 -6.97901e-15 6.97901e-15)
(3.63451e-11 -5.13632e-15 5.13632e-15)
(4.22766e-11 -5.13813e-15 5.13813e-15)
(3.63548e-11 -6.96987e-15 6.96987e-15)
(2.28936e-11 -3.32505e-15 3.32505e-15)
(9.67517e-12 -1.50961e-15 1.50961e-15)
)
;

boundaryField
{
    wedge0
    {
        type            wedge;
    }
    wedge1
    {
        type            wedge;
    }
    wedge2
    {
        type            wedge;
    }
    wedge3
    {
        type            wedge;
    }
    outlet
    {
        type            zeroGradient;
    }
    defaultFaces
    {
        type            empty;
    }
}


// ************************************************************************* //
