/*--------------------------------*- C++ -*----------------------------------*\
| =========                 |                                                 |
| \\      /  F ield         | OpenFOAM: The Open Source CFD Toolbox           |
|  \\    /   O peration     | Version:  2312                                  |
|   \\  /    A nd           | Website:  www.openfoam.com                      |
|    \\/     M anipulation  |                                                 |
\*---------------------------------------------------------------------------*/
FoamFile
{
    version     2.0;
    format      ascii;
    arch        "LSB;label=32;scalar=64";
    class       volScalarField;
    location    "0.037";
    object      T;
}
// * * * * * * * * * * * * * * * * * * * * * * * * * * * * * * * * * * * * * //

dimensions      [0 0 0 1 0 0 0];

internalField   nonuniform List<scalar> 
100
(
248.364
249.124
247.016
247.885
245.282
246.245
243.612
244.236
242.026
242.044
240.391
239.865
238.606
237.763
236.679
235.701
234.66
233.628
232.575
231.51
230.429
229.335
228.228
227.112
225.993
224.875
223.768
222.674
221.612
220.565
219.587
218.593
217.743
216.774
216.12
215.091
214.738
213.512
213.595
212.015
212.645
210.624
211.791
209.413
210.912
208.471
209.919
207.847
208.79
207.544
207.542
207.563
206.178
207.945
204.666
208.739
203.001
209.896
201.315
211.176
199.925
212.156
199.239
212.405
199.546
211.738
200.797
210.363
202.564
208.806
204.254
207.595
205.453
206.962
206.117
206.807
206.472
206.913
206.786
207.195
207.284
207.856
208.417
209.658
211.32
213.888
216.807
220.01
222.716
224.953
226.427
227.512
228.087
228.536
228.722
228.958
229.012
229.162
229.18
229.325
)
;

boundaryField
{
    sides
    {
        type            zeroGradient;
    }
    empty
    {
        type            empty;
    }
}


// ************************************************************************* //
