/*--------------------------------*- C++ -*----------------------------------*\
| =========                 |                                                 |
| \\      /  F ield         | OpenFOAM: The Open Source CFD Toolbox           |
|  \\    /   O peration     | Version:  2312                                  |
|   \\  /    A nd           | Website:  www.openfoam.com                      |
|    \\/     M anipulation  |                                                 |
\*---------------------------------------------------------------------------*/
FoamFile
{
    version     2.0;
    format      ascii;
    arch        "LSB;label=32;scalar=64";
    class       volScalarField;
    location    "0.037";
    object      thermo:e;
}
// * * * * * * * * * * * * * * * * * * * * * * * * * * * * * * * * * * * * * //

dimensions      [0 2 -2 0 0 0 0];

internalField   nonuniform List<scalar> 
100
(
178623
179170
177654
178279
176407
177100
175206
175654
174065
174078
172889
172511
171605
170999
170220
169516
168767
168025
167268
166502
165725
164938
164142
163339
162534
161730
160934
160147
159384
158631
157927
157212
156601
155904
155433
154694
154440
153558
153618
152481
152934
151481
152320
150610
151688
149932
150974
149484
150161
149265
149264
149279
148283
149554
147195
150125
145998
150957
144786
151878
143786
152582
143293
152762
143513
152282
144413
151293
145684
150173
146900
149302
147762
148847
148239
148736
148494
148812
148720
149015
149079
149490
149893
150786
151981
153828
155928
158231
160177
161786
162846
163627
164040
164363
164497
164666
164706
164813
164827
164930
)
;

boundaryField
{
    sides
    {
        type            zeroGradient;
    }
    empty
    {
        type            empty;
    }
}


// ************************************************************************* //
