/*--------------------------------*- C++ -*----------------------------------*\
| =========                 |                                                 |
| \\      /  F ield         | OpenFOAM: The Open Source CFD Toolbox           |
|  \\    /   O peration     | Version:  2312                                  |
|   \\  /    A nd           | Website:  www.openfoam.com                      |
|    \\/     M anipulation  |                                                 |
\*---------------------------------------------------------------------------*/
FoamFile
{
    version     2.0;
    format      ascii;
    arch        "LSB;label=32;scalar=64";
    class       volVectorField;
    location    "0.037";
    object      U;
}
// * * * * * * * * * * * * * * * * * * * * * * * * * * * * * * * * * * * * * //

dimensions      [0 1 -1 0 0 0 0];

internalField   nonuniform List<vector> 
100
(
(149.392 0 0)
(151.76 0 0)
(154.125 0 0)
(156.663 0 0)
(159.048 0 0)
(161.459 0 0)
(163.929 0 0)
(166.215 0 0)
(168.734 0 0)
(170.971 0 0)
(173.464 0 0)
(175.725 0 0)
(178.151 0 0)
(180.453 0 0)
(182.823 0 0)
(185.147 0 0)
(187.488 0 0)
(189.814 0 0)
(192.14 0 0)
(194.461 0 0)
(196.777 0 0)
(199.088 0 0)
(201.392 0 0)
(203.69 0 0)
(205.979 0 0)
(208.26 0 0)
(210.531 0 0)
(212.792 0 0)
(215.044 0 0)
(217.281 0 0)
(219.516 0 0)
(221.725 0 0)
(223.946 0 0)
(226.118 0 0)
(228.333 0 0)
(230.453 0 0)
(232.668 0 0)
(234.72 0 0)
(236.933 0 0)
(238.911 0 0)
(241.095 0 0)
(243.012 0 0)
(245.113 0 0)
(247 0 0)
(248.947 0 0)
(250.828 0 0)
(252.562 0 0)
(254.433 0 0)
(255.919 0 0)
(257.748 0 0)
(258.964 0 0)
(260.72 0 0)
(261.631 0 0)
(263.308 0 0)
(263.872 0 0)
(265.474 0 0)
(265.686 0 0)
(267.186 0 0)
(267.139 0 0)
(268.431 0 0)
(268.334 0 0)
(269.249 0 0)
(269.361 0 0)
(269.751 0 0)
(270.256 0 0)
(270.104 0 0)
(270.996 0 0)
(270.472 0 0)
(271.547 0 0)
(270.947 0 0)
(271.923 0 0)
(271.508 0 0)
(272.201 0 0)
(272.052 0 0)
(272.447 0 0)
(272.458 0 0)
(272.618 0 0)
(272.581 0 0)
(272.468 0 0)
(272.062 0 0)
(271.258 0 0)
(269.652 0 0)
(266.78 0 0)
(261.985 0 0)
(254.914 0 0)
(245.874 0 0)
(236.011 0 0)
(226.787 0 0)
(219.298 0 0)
(213.901 0 0)
(210.4 0 0)
(208.34 0 0)
(207.256 0 0)
(206.773 0 0)
(206.649 0 0)
(206.737 0 0)
(206.941 0 0)
(207.201 0 0)
(207.494 0 0)
(207.734 0 0)
)
;

boundaryField
{
    sides
    {
        type            mywaveTransmissive;
        gamma           1.4;
        value           nonuniform List<vector> 2((207.851 0 0) (148.829 0 0));
    }
    empty
    {
        type            empty;
    }
}


// ************************************************************************* //
