/*--------------------------------*- C++ -*----------------------------------*\
| =========                 |                                                 |
| \\      /  F ield         | OpenFOAM: The Open Source CFD Toolbox           |
|  \\    /   O peration     | Version:  2312                                  |
|   \\  /    A nd           | Website:  www.openfoam.com                      |
|    \\/     M anipulation  |                                                 |
\*---------------------------------------------------------------------------*/
FoamFile
{
    version     2.0;
    format      ascii;
    arch        "LSB;label=32;scalar=64";
    class       volScalarField;
    location    "0.069";
    object      p;
}
// * * * * * * * * * * * * * * * * * * * * * * * * * * * * * * * * * * * * * //

dimensions      [1 -1 -2 0 0 0 0];

internalField   nonuniform List<scalar> 
100
(
27079.9
27218.3
26786.3
27140
26413.3
27055.4
26029.5
26942.8
25670
26772.6
25365.1
26525.6
25129.2
26202.5
24954.6
25825.8
24815.9
25430.2
24682.1
25048.3
24530.5
24700.1
24352.5
24390.6
24152
24115.4
23939.1
23866.6
23724
23638
23514.4
23426.1
23315.2
23229.9
23129.2
23049.6
22958.4
22885.9
22804.2
22740
22668
22612.6
22550.5
22504.4
22452.4
22415.8
22373.9
22347.1
22315.9
22299.9
22282.1
22282.7
22289.6
22329.3
22403.8
22559.9
22832.2
23300.7
24012.8
24997.8
26170.8
27399.4
28505.5
29401.5
30042.5
30482.3
30753.6
30930.7
31029.7
31099.9
31134.7
31166.8
31179.9
31199.2
31205.4
31220.5
31224.7
31238.4
31242
31255.2
31258.2
31271.2
31273.3
31285.8
31286.7
31298.5
31298.2
31308.6
31307.8
31315.7
31315.9
31319.1
31322.3
31317.8
31326.3
31310.3
31325.8
31294.3
31317.8
31266.8
)
;

boundaryField
{
    sides
    {
        type            zeroGradient;
    }
    empty
    {
        type            empty;
    }
}


// ************************************************************************* //
