/*--------------------------------*- C++ -*----------------------------------*\
| =========                 |                                                 |
| \\      /  F ield         | OpenFOAM: The Open Source CFD Toolbox           |
|  \\    /   O peration     | Version:  2312                                  |
|   \\  /    A nd           | Website:  www.openfoam.com                      |
|    \\/     M anipulation  |                                                 |
\*---------------------------------------------------------------------------*/
FoamFile
{
    version     2.0;
    format      ascii;
    arch        "LSB;label=32;scalar=64";
    class       volScalarField;
    location    "0.069";
    object      rho;
}
// * * * * * * * * * * * * * * * * * * * * * * * * * * * * * * * * * * * * * //

dimensions      [1 -3 0 0 0 0 0];

internalField   nonuniform List<scalar> 
100
(
0.411161
0.409636
0.409027
0.407813
0.407828
0.40695
0.40725
0.406567
0.406807
0.406264
0.406177
0.405764
0.40521
0.404899
0.403889
0.40361
0.402272
0.401924
0.400438
0.399938
0.398454
0.397769
0.396377
0.395533
0.394258
0.393312
0.392146
0.391162
0.390088
0.389117
0.388124
0.387197
0.38628
0.385416
0.384576
0.383782
0.383019
0.382298
0.381608
0.380956
0.380334
0.379743
0.379178
0.378639
0.378119
0.377619
0.377134
0.376667
0.376218
0.375799
0.375424
0.375133
0.374995
0.375146
0.375819
0.377421
0.38057
0.386042
0.394475
0.405845
0.419099
0.432435
0.44414
0.45327
0.459762
0.464091
0.466889
0.468705
0.469937
0.470846
0.471589
0.472259
0.472905
0.473558
0.474229
0.474927
0.475652
0.476406
0.477188
0.477995
0.47883
0.479689
0.480576
0.481487
0.482427
0.483394
0.484389
0.485412
0.486459
0.487533
0.488618
0.489725
0.49082
0.491925
0.492985
0.494038
0.495009
0.495952
0.496777
0.497521
)
;

boundaryField
{
    sides
    {
        type            zeroGradient;
    }
    empty
    {
        type            empty;
    }
}


// ************************************************************************* //
