/*--------------------------------*- C++ -*----------------------------------*\
| =========                 |                                                 |
| \\      /  F ield         | OpenFOAM: The Open Source CFD Toolbox           |
|  \\    /   O peration     | Version:  2312                                  |
|   \\  /    A nd           | Website:  www.openfoam.com                      |
|    \\/     M anipulation  |                                                 |
\*---------------------------------------------------------------------------*/
FoamFile
{
    version     2.0;
    format      ascii;
    arch        "LSB;label=32;scalar=64";
    class       volScalarField;
    location    "0.069";
    object      T;
}
// * * * * * * * * * * * * * * * * * * * * * * * * * * * * * * * * * * * * * //

dimensions      [0 0 0 1 0 0 0];

internalField   nonuniform List<scalar> 
100
(
228.927
230.954
227.627
231.32
225.117
231.087
222.161
230.342
219.331
229.058
217.062
227.224
215.557
224.936
214.759
222.411
214.424
219.922
214.245
217.696
213.989
215.839
213.549
214.34
212.93
213.118
212.189
212.078
211.392
211.151
210.585
210.296
209.797
209.498
209.045
208.757
208.345
208.08
207.712
207.481
207.162
206.978
206.717
206.588
206.394
206.331
206.21
206.218
206.175
206.258
206.299
206.464
206.605
206.89
207.208
207.766
208.534
209.797
211.586
214.094
217.052
220.233
223.086
225.463
227.126
228.301
228.953
229.379
229.51
229.585
229.48
229.391
229.174
228.999
228.721
228.494
228.177
227.916
227.569
227.281
226.906
226.594
226.191
225.853
225.419
225.053
224.589
224.19
223.702
223.265
222.771
222.29
221.817
221.287
220.871
220.287
219.965
219.326
219.126
218.441
)
;

boundaryField
{
    sides
    {
        type            zeroGradient;
    }
    empty
    {
        type            empty;
    }
}


// ************************************************************************* //
