/*--------------------------------*- C++ -*----------------------------------*\
| =========                 |                                                 |
| \\      /  F ield         | OpenFOAM: The Open Source CFD Toolbox           |
|  \\    /   O peration     | Version:  2312                                  |
|   \\  /    A nd           | Website:  www.openfoam.com                      |
|    \\/     M anipulation  |                                                 |
\*---------------------------------------------------------------------------*/
FoamFile
{
    version     2.0;
    format      ascii;
    arch        "LSB;label=32;scalar=64";
    class       volVectorField;
    location    "0.069";
    object      U;
}
// * * * * * * * * * * * * * * * * * * * * * * * * * * * * * * * * * * * * * //

dimensions      [0 1 -1 0 0 0 0];

internalField   nonuniform List<vector> 
100
(
(190.827 0 0)
(192.542 0 0)
(193.385 0 0)
(195.303 0 0)
(195.985 0 0)
(197.824 0 0)
(198.447 0 0)
(200.089 0 0)
(200.807 0 0)
(202.144 0 0)
(203.08 0 0)
(204.057 0 0)
(205.254 0 0)
(205.905 0 0)
(207.31 0 0)
(207.749 0 0)
(209.239 0 0)
(209.612 0 0)
(211.059 0 0)
(211.487 0 0)
(212.803 0 0)
(213.345 0 0)
(214.507 0 0)
(215.164 0 0)
(216.19 0 0)
(216.928 0 0)
(217.856 0 0)
(218.634 0 0)
(219.496 0 0)
(220.282 0 0)
(221.097 0 0)
(221.869 0 0)
(222.645 0 0)
(223.389 0 0)
(224.124 0 0)
(224.831 0 0)
(225.521 0 0)
(226.182 0 0)
(226.82 0 0)
(227.428 0 0)
(228.009 0 0)
(228.557 0 0)
(229.074 0 0)
(229.557 0 0)
(230.007 0 0)
(230.422 0 0)
(230.802 0 0)
(231.143 0 0)
(231.446 0 0)
(231.7 0 0)
(231.894 0 0)
(231.995 0 0)
(231.949 0 0)
(231.646 0 0)
(230.895 0 0)
(229.372 0 0)
(226.609 0 0)
(222.067 0 0)
(215.398 0 0)
(206.816 0 0)
(197.237 0 0)
(187.965 0 0)
(180.09 0 0)
(174.129 0 0)
(170.02 0 0)
(167.402 0 0)
(165.837 0 0)
(164.963 0 0)
(164.518 0 0)
(164.331 0 0)
(164.297 0 0)
(164.353 0 0)
(164.462 0 0)
(164.602 0 0)
(164.761 0 0)
(164.931 0 0)
(165.11 0 0)
(165.294 0 0)
(165.484 0 0)
(165.679 0 0)
(165.88 0 0)
(166.087 0 0)
(166.299 0 0)
(166.52 0 0)
(166.747 0 0)
(166.983 0 0)
(167.227 0 0)
(167.476 0 0)
(167.738 0 0)
(168 0 0)
(168.28 0 0)
(168.554 0 0)
(168.856 0 0)
(169.144 0 0)
(169.472 0 0)
(169.781 0 0)
(170.144 0 0)
(170.485 0 0)
(170.892 0 0)
(171.257 0 0)
)
;

boundaryField
{
    sides
    {
        type            mywaveTransmissive;
        gamma           1.4;
        value           nonuniform List<vector> 2((171.304 0 0) (190.878 0 0));
    }
    empty
    {
        type            empty;
    }
}


// ************************************************************************* //
