/*--------------------------------*- C++ -*----------------------------------*\
| =========                 |                                                 |
| \\      /  F ield         | OpenFOAM: The Open Source CFD Toolbox           |
|  \\    /   O peration     | Version:  2312                                  |
|   \\  /    A nd           | Website:  www.openfoam.com                      |
|    \\/     M anipulation  |                                                 |
\*---------------------------------------------------------------------------*/
FoamFile
{
    version     2.0;
    format      ascii;
    arch        "LSB;label=32;scalar=64";
    class       volScalarField;
    location    "0.003";
    object      p;
}
// * * * * * * * * * * * * * * * * * * * * * * * * * * * * * * * * * * * * * //

dimensions      [1 -1 -2 0 0 0 0];

internalField   nonuniform List<scalar> 
100
(
110318
110318
110318
110318
110318
110318
110318
110318
110318
110318
110318
110318
110318
110318
110318
110318
110318
110318
110318
110318
110318
110318
110318
110318
110317
110317
110314
110308
110291
110248
110151
109947
109552
108852
107707
105979
103566
100422
96575.4
92115.2
87174.2
81901.6
76444.6
70937.1
65493.2
60206.8
55156.8
50403.9
46003.9
42011.2
38489.9
35511.7
33157.2
31480.4
30448.2
29915.9
29687.4
29601.4
29572.8
29564.1
29561.3
29560.8
29553.6
29460.1
28937.1
27176.5
23347.6
17925.6
13018.3
10251.7
9241.81
8963.15
8895.07
8879.27
8875.73
8874.96
8874.8
8874.76
8874.76
8874.76
8874.76
8874.76
8874.76
8874.76
8874.76
8874.76
8874.76
8874.76
8874.76
8874.76
8874.76
8874.76
8874.76
8874.76
8874.76
8874.76
8874.76
8874.76
8874.76
8874.76
)
;

boundaryField
{
    sides
    {
        type            zeroGradient;
    }
    empty
    {
        type            empty;
    }
}


// ************************************************************************* //
