/*--------------------------------*- C++ -*----------------------------------*\
| =========                 |                                                 |
| \\      /  F ield         | OpenFOAM: The Open Source CFD Toolbox           |
|  \\    /   O peration     | Version:  2312                                  |
|   \\  /    A nd           | Website:  www.openfoam.com                      |
|    \\/     M anipulation  |                                                 |
\*---------------------------------------------------------------------------*/
FoamFile
{
    version     2.0;
    format      ascii;
    arch        "LSB;label=32;scalar=64";
    class       volScalarField;
    location    "0.003";
    object      rho;
}
// * * * * * * * * * * * * * * * * * * * * * * * * * * * * * * * * * * * * * //

dimensions      [1 -3 0 0 0 0 0];

internalField   nonuniform List<scalar> 
100
(
1.116
1.116
1.116
1.116
1.116
1.116
1.116
1.116
1.116
1.116
1.116
1.116
1.116
1.116
1.116
1.116
1.116
1.116
1.116
1.116
1.116
1.116
1.116
1.116
1.116
1.11599
1.11598
1.11593
1.1158
1.1155
1.11479
1.11332
1.11046
1.10537
1.09702
1.08435
1.06652
1.04306
1.01401
0.979832
0.941332
0.899466
0.855226
0.809557
0.76331
0.717232
0.672005
0.628212
0.586442
0.547319
0.511587
0.48007
0.453605
0.432527
0.415818
0.400881
0.384977
0.36656
0.345959
0.324749
0.304825
0.28772
0.274204
0.263889
0.254241
0.239574
0.213721
0.177906
0.143895
0.123065
0.114797
0.112386
0.111782
0.111641
0.111609
0.111602
0.1116
0.1116
0.1116
0.1116
0.1116
0.1116
0.1116
0.1116
0.1116
0.1116
0.1116
0.1116
0.1116
0.1116
0.1116
0.1116
0.1116
0.1116
0.1116
0.1116
0.1116
0.1116
0.1116
0.1116
)
;

boundaryField
{
    sides
    {
        type            zeroGradient;
    }
    empty
    {
        type            empty;
    }
}


// ************************************************************************* //
