/*--------------------------------*- C++ -*----------------------------------*\
| =========                 |                                                 |
| \\      /  F ield         | OpenFOAM: The Open Source CFD Toolbox           |
|  \\    /   O peration     | Version:  2312                                  |
|   \\  /    A nd           | Website:  www.openfoam.com                      |
|    \\/     M anipulation  |                                                 |
\*---------------------------------------------------------------------------*/
FoamFile
{
    version     2.0;
    format      ascii;
    arch        "LSB;label=32;scalar=64";
    class       volScalarField;
    location    "0.003";
    object      thermo:e;
}
// * * * * * * * * * * * * * * * * * * * * * * * * * * * * * * * * * * * * * //

dimensions      [0 2 -2 0 0 0 0];

internalField   nonuniform List<scalar> 
100
(
247130
247130
247130
247130
247130
247130
247130
247130
247130
247130
247130
247130
247130
247130
247130
247130
247130
247130
247130
247130
247130
247130
247130
247130
247130
247129
247128
247123
247112
247085
247023
246892
246640
246191
245456
244341
242769
240693
238105
235030
231520
227642
223465
219063
214506
209860
205197
200587
196116
191898
188093
184932
182745
181958
183064
186565
192789
201889
213704
227595
242448
256857
269452
279099
284547
283595
273112
251900
226181
208261
201268
199386
198941
198839
198816
198811
198810
198810
198810
198810
198810
198810
198810
198810
198810
198810
198810
198810
198810
198810
198810
198810
198810
198810
198810
198810
198810
198810
198810
198810
)
;

boundaryField
{
    sides
    {
        type            zeroGradient;
    }
    empty
    {
        type            empty;
    }
}


// ************************************************************************* //
