/*--------------------------------*- C++ -*----------------------------------*\
| =========                 |                                                 |
| \\      /  F ield         | OpenFOAM: The Open Source CFD Toolbox           |
|  \\    /   O peration     | Version:  2312                                  |
|   \\  /    A nd           | Website:  www.openfoam.com                      |
|    \\/     M anipulation  |                                                 |
\*---------------------------------------------------------------------------*/
FoamFile
{
    version     2.0;
    format      ascii;
    arch        "LSB;label=32;scalar=64";
    class       volVectorField;
    location    "0.003";
    object      U;
}
// * * * * * * * * * * * * * * * * * * * * * * * * * * * * * * * * * * * * * //

dimensions      [0 1 -1 0 0 0 0];

internalField   nonuniform List<vector> 
100
(
(3.57572e-13 0 0)
(4.11663e-13 0 0)
(2.48741e-13 0 0)
(-2.12995e-14 0 0)
(-1.85016e-13 0 0)
(3.29995e-13 0 0)
(4.41886e-13 0 0)
(5.6325e-14 0 0)
(-1.28072e-13 0 0)
(-5.3094e-14 0 0)
(1.44305e-13 0 0)
(1.87512e-13 0 0)
(1.4448e-12 0 0)
(1.01997e-11 0 0)
(7.29203e-11 0 0)
(4.98217e-10 0 0)
(3.18165e-09 0 0)
(1.89546e-08 0 0)
(1.05327e-07 0 0)
(5.46085e-07 0 0)
(2.64237e-06 0 0)
(1.19342e-05 0 0)
(5.03105e-05 0 0)
(0.000197942 0 0)
(0.000726637 0 0)
(0.00248789 0 0)
(0.00794064 0 0)
(0.0236107 0 0)
(0.0653535 0 0)
(0.168265 0 0)
(0.402689 0 0)
(0.895357 0 0)
(1.84972 0 0)
(3.55388 0 0)
(6.36345 0 0)
(10.6551 0 0)
(16.762 0 0)
(24.9158 0 0)
(35.2151 0 0)
(47.6278 0 0)
(62.0185 0 0)
(78.1925 0 0)
(95.926 0 0)
(114.986 0 0)
(135.141 0 0)
(156.158 0 0)
(177.789 0 0)
(199.765 0 0)
(221.737 0 0)
(243.22 0 0)
(263.522 0 0)
(281.704 0 0)
(296.657 0 0)
(307.522 0 0)
(314.248 0 0)
(317.744 0 0)
(319.311 0 0)
(319.975 0 0)
(320.271 0 0)
(320.432 0 0)
(320.546 0 0)
(320.639 0 0)
(320.565 0 0)
(319.175 0 0)
(312.225 0 0)
(290.77 0 0)
(244.66 0 0)
(172.296 0 0)
(91.5983 0 0)
(34.2116 0 0)
(9.63444 0 0)
(2.36044 0 0)
(0.544908 0 0)
(0.121239 0 0)
(0.026059 0 0)
(0.0053955 0 0)
(0.00107203 0 0)
(0.000203638 0 0)
(3.68563e-05 0 0)
(6.33669e-06 0 0)
(1.03222e-06 0 0)
(1.58942e-07 0 0)
(2.30876e-08 0 0)
(3.15781e-09 0 0)
(4.0599e-10 0 0)
(4.89888e-11 0 0)
(5.46641e-12 0 0)
(5.00025e-13 0 0)
(4.17072e-14 0 0)
(-5.30791e-14 0 0)
(-1.75361e-14 0 0)
(1.23125e-14 0 0)
(-8.22793e-14 0 0)
(-1.42749e-13 0 0)
(-5.39947e-14 0 0)
(-1.04877e-13 0 0)
(1.62261e-14 0 0)
(1.34409e-13 0 0)
(5.19716e-14 0 0)
(9.18004e-15 0 0)
)
;

boundaryField
{
    sides
    {
        type            zeroGradient;
    }
    empty
    {
        type            empty;
    }
}


// ************************************************************************* //
