/*--------------------------------*- C++ -*----------------------------------*\
| =========                 |                                                 |
| \\      /  F ield         | OpenFOAM: The Open Source CFD Toolbox           |
|  \\    /   O peration     | Version:  2212                                  |
|   \\  /    A nd           | Website:  www.openfoam.com                      |
|    \\/     M anipulation  |                                                 |
\*---------------------------------------------------------------------------*/
FoamFile
{
    version     2.0;
    format      ascii;
    arch        "LSB;label=32;scalar=64";
    class       volVectorField;
    location    "0.003";
    object      U;
}
// * * * * * * * * * * * * * * * * * * * * * * * * * * * * * * * * * * * * * //

dimensions      [0 1 -1 0 0 0 0];

internalField   nonuniform List<vector> 
100
(
(-1.5363e-13 0 0)
(-1.82823e-13 0 0)
(-2.41413e-13 0 0)
(-4.55232e-14 0 0)
(-1.25983e-13 0 0)
(-1.7748e-13 0 0)
(-2.50084e-13 0 0)
(-6.35727e-13 0 0)
(-7.86844e-13 0 0)
(-5.05952e-13 0 0)
(-1.75392e-13 0 0)
(-1.7672e-13 0 0)
(-9.99755e-14 0 0)
(-1.87151e-13 0 0)
(-1.03584e-13 0 0)
(-7.52378e-15 0 0)
(1.1336e-13 0 0)
(1.44371e-13 0 0)
(-8.50652e-14 0 0)
(-4.23484e-14 0 0)
(2.62329e-13 0 0)
(2.01172e-13 0 0)
(1.78349e-13 0 0)
(1.55991e-13 0 0)
(-3.935e-13 0 0)
(-2.76702e-13 0 0)
(-1.74608e-13 0 0)
(-2.11574e-13 0 0)
(7.87291e-13 0 0)
(7.69239e-11 0 0)
(5.50935e-09 0 0)
(2.83213e-07 0 0)
(1.02669e-05 0 0)
(0.000257636 0 0)
(0.00438975 0 0)
(0.0499855 0 0)
(0.377859 0 0)
(1.91402 0 0)
(6.69841 0 0)
(17.0501 0 0)
(33.6599 0 0)
(55.0257 0 0)
(78.8589 0 0)
(103.489 0 0)
(128.119 0 0)
(152.485 0 0)
(176.694 0 0)
(200.631 0 0)
(224.336 0 0)
(246.828 0 0)
(270.391 0 0)
(289.033 0 0)
(299.814 0 0)
(296.57 0 0)
(289.332 0 0)
(285.615 0 0)
(282.687 0 0)
(282.383 0 0)
(286.407 0 0)
(290.78 0 0)
(282.879 0 0)
(271.32 0 0)
(267.962 0 0)
(279.834 0 0)
(315.198 0 0)
(304.632 0 0)
(170.375 0 0)
(21.5637 0 0)
(0.375454 0 0)
(0.00164584 0 0)
(2.48773e-06 0 0)
(1.97287e-09 0 0)
(1.32359e-12 0 0)
(5.94326e-14 0 0)
(5.07528e-14 0 0)
(4.91525e-14 0 0)
(-2.13285e-13 0 0)
(-2.11462e-13 0 0)
(-3.75378e-13 0 0)
(-1.18371e-13 0 0)
(2.73613e-13 0 0)
(2.485e-13 0 0)
(-8.61791e-14 0 0)
(-9.52407e-14 0 0)
(1.09235e-13 0 0)
(8.61563e-14 0 0)
(1.31604e-13 0 0)
(8.86167e-14 0 0)
(5.41959e-14 0 0)
(4.50699e-14 0 0)
(6.52536e-14 0 0)
(-3.55841e-14 0 0)
(-8.53115e-14 0 0)
(-7.2986e-14 0 0)
(-2.20209e-13 0 0)
(-3.16496e-13 0 0)
(-1.94429e-13 0 0)
(-7.66632e-14 0 0)
(-9.333e-14 0 0)
(-6.06554e-14 0 0)
)
;

boundaryField
{
    sides
    {
        type            zeroGradient;
    }
    empty
    {
        type            empty;
    }
}


// ************************************************************************* //
