/*--------------------------------*- C++ -*----------------------------------*\
| =========                 |                                                 |
| \\      /  F ield         | OpenFOAM: The Open Source CFD Toolbox           |
|  \\    /   O peration     | Version:  2312                                  |
|   \\  /    A nd           | Website:  www.openfoam.com                      |
|    \\/     M anipulation  |                                                 |
\*---------------------------------------------------------------------------*/
FoamFile
{
    version     2.0;
    format      ascii;
    arch        "LSB;label=32;scalar=64";
    class       volVectorField;
    location    "0.003";
    object      U;
}
// * * * * * * * * * * * * * * * * * * * * * * * * * * * * * * * * * * * * * //

dimensions      [0 1 -1 0 0 0 0];

internalField   nonuniform List<vector> 
100
(
(3.66241e-13 0 0)
(4.61997e-13 0 0)
(4.25768e-13 0 0)
(3.03967e-13 0 0)
(2.05351e-13 0 0)
(1.53891e-13 0 0)
(6.38214e-14 0 0)
(-8.29239e-14 0 0)
(-1.18095e-13 0 0)
(-6.73582e-14 0 0)
(-6.87953e-14 0 0)
(-9.59747e-14 0 0)
(1.44428e-13 0 0)
(4.19325e-13 0 0)
(2.62329e-12 0 0)
(2.28752e-11 0 0)
(1.73281e-10 0 0)
(1.21472e-09 0 0)
(7.90554e-09 0 0)
(4.77631e-08 0 0)
(2.68032e-07 0 0)
(1.39761e-06 0 0)
(6.77324e-06 0 0)
(3.05111e-05 0 0)
(0.000127746 0 0)
(0.000497028 0 0)
(0.0017964 0 0)
(0.00602828 0 0)
(0.0187703 0 0)
(0.0541868 0 0)
(0.144909 0 0)
(0.358696 0 0)
(0.821393 0 0)
(1.74011 0 0)
(3.41367 0 0)
(6.21522 0 0)
(10.5413 0 0)
(16.7402 0 0)
(25.0475 0 0)
(35.5533 0 0)
(48.2084 0 0)
(62.8575 0 0)
(79.2805 0 0)
(97.2229 0 0)
(116.417 0 0)
(136.594 0 0)
(157.463 0 0)
(178.682 0 0)
(199.807 0 0)
(220.228 0 0)
(239.1 0 0)
(255.326 0 0)
(267.823 0 0)
(276.099 0 0)
(280.699 0 0)
(282.875 0 0)
(283.845 0 0)
(284.292 0 0)
(284.529 0 0)
(284.669 0 0)
(284.73 0 0)
(284.573 0 0)
(283.408 0 0)
(278.423 0 0)
(263.273 0 0)
(229.561 0 0)
(173.553 0 0)
(105.025 0 0)
(47.468 0 0)
(16.3226 0 0)
(4.73694 0 0)
(1.26253 0 0)
(0.319553 0 0)
(0.0773555 0 0)
(0.0178894 0 0)
(0.00393993 0 0)
(0.000823609 0 0)
(0.000162919 0 0)
(3.04135e-05 0 0)
(5.34535e-06 0 0)
(8.82625e-07 0 0)
(1.36654e-07 0 0)
(1.98026e-08 0 0)
(2.68091e-09 0 0)
(3.38445e-10 0 0)
(3.98895e-11 0 0)
(4.37266e-12 0 0)
(3.15124e-13 0 0)
(-6.59253e-14 0 0)
(-1.16913e-13 0 0)
(-1.05516e-13 0 0)
(3.57807e-14 0 0)
(1.64422e-13 0 0)
(1.32795e-13 0 0)
(6.8781e-14 0 0)
(-1.02549e-13 0 0)
(-1.15406e-13 0 0)
(3.09217e-14 0 0)
(3.73531e-14 0 0)
(2.72921e-14 0 0)
)
;

boundaryField
{
    sides
    {
        type            zeroGradient;
    }
    empty
    {
        type            empty;
    }
}


// ************************************************************************* //
