0.000749886 	654010 	0.000396132 	3.74968 	-1.56755e-08 	1.65088e-08
0.0016069 	654021 	0.000396175 	7.62475 	-1.54643e-08 	1.62635e-08
0.0025654 	654026 	0.000396255 	11.9538 	-1.59674e-08 	1.67552e-08
0.00354676 	654029 	0.000396381 	16.3922 	-1.65518e-08 	1.73354e-08
0.0045362 	654031 	0.000396565 	20.8716 	-1.59233e-08 	1.66849e-08
0.00552938 	654032 	0.000396816 	25.3724 	-1.63776e-08 	1.71105e-08
0.0065246 	654033 	0.000397147 	29.8875 	-1.6444e-08 	1.71968e-08
0.00752105 	654034 	0.00039757 	34.4129 	-1.67084e-08 	1.73847e-08
0.00851829 	654035 	0.000398095 	38.9464 	-1.60849e-08 	1.66996e-08
0.00951608 	654036 	0.000398734 	43.4866 	-1.48074e-08 	1.5365e-08
0.0105143 	654037 	0.000399501 	48.0329 	-1.35266e-08 	1.4039e-08
0.0115127 	654038 	0.000400406 	52.5845 	-1.2311e-08 	1.27829e-08
0.0125114 	654039 	0.000401463 	57.1416 	-1.08807e-08 	1.13381e-08
0.0135103 	654040 	0.000402685 	61.704 	-9.25e-09 	9.6966e-09
0.0145093 	654041 	0.000404084 	66.2726 	-7.42144e-09 	7.86605e-09
0.0155084 	654042 	0.000405675 	70.8494 	-5.48717e-09 	5.92862e-09
0.0165076 	654043 	0.000407473 	75.4353 	-3.43081e-09 	3.81144e-09
0.0175069 	654044 	0.000409492 	80.0311 	-2.25206e-09 	2.58714e-09
0.0185062 	654046 	0.000411749 	84.6384 	-1.06338e-09 	1.37905e-09
0.0195056 	654047 	0.00041426 	89.2586 	-6.06553e-10 	9.08202e-10
0.020505 	654048 	0.000417044 	93.893 	-3.73312e-10 	6.64483e-10
0.0215045 	654050 	0.000420118 	98.5423 	-3.52193e-10 	6.44027e-10
0.022504 	654051 	0.000423505 	103.209 	-5.52062e-10 	8.53931e-10
0.0235035 	654053 	0.000427225 	107.895 	-1.0755e-09 	1.33831e-09
0.0245031 	654055 	0.000431302 	112.601 	-1.31038e-09 	1.53601e-09
0.0255027 	654057 	0.000435762 	117.331 	-1.24346e-09 	1.43988e-09
0.0265023 	654059 	0.000440631 	122.086 	-1.39907e-09 	1.57355e-09
0.0275019 	654061 	0.000445941 	126.868 	-1.85403e-09 	2.02164e-09
0.0285015 	654063 	0.000451724 	131.681 	-1.52702e-09 	1.69351e-09
0.0295012 	654065 	0.000458016 	136.526 	-1.41176e-09 	1.5557e-09
0.0305008 	654067 	0.000464856 	141.408 	-1.48733e-09 	1.6214e-09
0.0315005 	654070 	0.000472287 	146.328 	-1.82076e-09 	1.94031e-09
0.0325002 	654072 	0.000480359 	151.291 	-1.5719e-09 	1.67545e-09
0.0334999 	654075 	0.000489123 	156.301 	-1.3496e-09 	1.42721e-09
0.0344996 	654078 	0.000498639 	161.362 	-1.08107e-09 	1.1257e-09
0.0354993 	654081 	0.000508974 	166.479 	-9.793e-10 	9.79302e-10
0.036499 	654084 	0.0005202 	171.655 	-8.79624e-10 	8.79595e-10
0.0374987 	654087 	0.0005324 	176.897 	-8.88667e-10 	8.88667e-10
0.0384985 	654090 	0.000545668 	182.209 	-9.73889e-10 	9.73889e-10
0.0394982 	654093 	0.000560108 	187.598 	-1.29001e-09 	1.29001e-09
0.040498 	654097 	0.000575839 	193.069 	-1.3483e-09 	1.3483e-09
0.0414977 	654100 	0.000592995 	198.628 	-1.14755e-09 	1.14755e-09
0.0424975 	654104 	0.000611731 	204.282 	-1.05014e-09 	1.05014e-09
0.0434972 	654108 	0.000632221 	210.036 	-9.8129e-10 	9.8129e-10
0.044497 	654112 	0.000654666 	215.932 	-9.49322e-10 	9.49322e-10
0.0454967 	654114 	0.000679298 	221.766 	-9.25454e-10 	9.25454e-10
0.0464965 	654147 	0.000706406 	227.598 	-9.01038e-10 	9.01038e-10
0.0474963 	654138 	0.000736212 	231.194 	-8.87023e-10 	8.87023e-10
0.0484961 	654105 	0.000768576 	230.658 	-8.77572e-10 	8.77572e-10
0.0494958 	654158 	0.000803255 	230.921 	-8.67552e-10 	8.67552e-10
0.0504956 	654149 	0.000840087 	233.973 	-8.53256e-10 	8.53256e-10
0.0514954 	654146 	0.000879187 	237.862 	-8.05808e-10 	8.05808e-10
0.0524952 	654150 	0.000920698 	241.907 	-7.13425e-10 	7.13425e-10
0.053495 	654153 	0.000964772 	246.072 	-5.57846e-10 	5.57846e-10
0.0544948 	654158 	0.00101158 	250.255 	-4.28798e-10 	4.28798e-10
0.0554946 	654163 	0.0010613 	254.466 	-2.90185e-10 	2.90185e-10
0.0564944 	654168 	0.00111414 	258.679 	-1.79947e-10 	1.79947e-10
0.0574942 	654173 	0.00117032 	262.895 	-8.87626e-11 	8.87626e-11
0.058494 	654178 	0.00123005 	267.113 	-1.2336e-10 	1.2336e-10
0.0594938 	654183 	0.0012936 	271.331 	1.18678e-10 	-1.18678e-10
0.0604936 	654188 	0.00136122 	275.553 	4.76657e-11 	-4.76657e-11
0.0614934 	654193 	0.0014332 	279.775 	1.63232e-12 	-1.63232e-12
0.0624932 	654198 	0.00150984 	284.003 	1.64404e-12 	-1.64404e-12
0.063493 	654203 	0.00159148 	288.232 	1.58984e-12 	-1.58984e-12
0.0644928 	654209 	0.00167847 	292.47 	0 	2.52638e-31
0.0654926 	654214 	0.00177119 	296.711 	2.09098e-11 	-2.09098e-11
0.0664924 	654220 	0.00187003 	300.967 	-1.12231e-11 	1.12231e-11
0.0674922 	654226 	0.00197544 	305.225 	1.21599e-10 	-1.21599e-10
0.068492 	654233 	0.00208789 	309.503 	8.63554e-11 	-8.63554e-11
0.0694918 	654240 	0.00220788 	313.788 	5.58028e-11 	-5.58028e-11
0.0704916 	654247 	0.00233594 	318.092 	1.96054e-11 	-1.96054e-11
0.0714915 	654255 	0.00247265 	322.41 	1.09158e-11 	-1.09158e-11
0.0724913 	654264 	0.00261864 	326.741 	1.32689e-12 	-1.32689e-12
0.0734911 	654273 	0.00277456 	331.096 	1.09353e-11 	-1.09353e-11
0.0744909 	654283 	0.00294113 	335.459 	-1.89463e-11 	1.89463e-11
0.0754907 	654294 	0.00311912 	339.847 	4.45911e-11 	-4.45911e-11
0.0764906 	654306 	0.00330934 	344.244 	2.56189e-11 	-2.56189e-11
0.0774904 	654320 	0.00351266 	348.658 	1.41345e-11 	-1.41345e-11
0.0784902 	654335 	0.00373003 	353.088 	7.96075e-12 	-7.96075e-12
0.07949 	654352 	0.00396245 	357.522 	1.20234e-12 	-1.20118e-12
0.0804898 	654370 	0.00421099 	361.976 	7.30625e-12 	-7.30816e-12
0.0814897 	654391 	0.00447681 	366.425 	-1.18575e-11 	1.18445e-11
0.0824895 	654413 	0.00476114 	370.887 	3.0649e-11 	-3.06154e-11
0.0834893 	654438 	0.00506529 	375.341 	2.0947e-11 	-2.09556e-11
0.0844891 	654466 	0.00539066 	379.793 	2.82625e-11 	-2.82333e-11
0.085489 	654498 	0.00573877 	384.238 	-1.21846e-11 	1.2997e-11
0.0864888 	654532 	0.0061112 	388.667 	6.1824e-12 	-6.09438e-12
0.0874886 	654570 	0.00650968 	393.089 	-1.005e-11 	7.46662e-12
0.0884884 	654611 	0.00693602 	397.49 	-1.01444e-11 	1.01441e-11
0.0894883 	654655 	0.00739216 	401.885 	-9.00895e-13 	9.00803e-13
0.0904881 	654703 	0.00788018 	406.261 	-1.13074e-11 	1.9695e-11
0.0914879 	654752 	0.00840226 	410.63 	-9.81258e-12 	8.06364e-12
0.0924877 	654805 	0.00896075 	414.987 	-6.79595e-13 	6.24801e-12
0.0934876 	654859 	0.00955814 	419.338 	-1.57156e-11 	1.37374e-11
0.0944874 	654916 	0.0101971 	423.683 	-6.61378e-12 	1.37287e-11
0.0954872 	654975 	0.0108804 	428.032 	-5.20793e-12 	5.17001e-12
0.0964871 	655037 	0.011611 	432.39 	-8.40135e-12 	8.39521e-12
0.0974869 	655103 	0.0123921 	436.766 	-4.62568e-12 	5.4716e-13
0.0984867 	655172 	0.0132272 	441.173 	-7.60695e-12 	7.60693e-12
0.0994866 	655248 	0.0141196 	445.612 	1.86986e-12 	-1.87088e-12
0.100486 	655328 	0.0150733 	450.095 	-4.38945e-12 	4.3896e-12
0.101486 	655418 	0.0160923 	454.605 	4.49656e-12 	-4.49657e-12
0.102486 	655514 	0.0171807 	459.157 	-4.6199e-12 	4.61998e-12
0.103486 	655622 	0.018343 	463.711 	4.42211e-12 	-4.40887e-12
0.104486 	655742 	0.019584 	468.269 	-5.2019e-12 	5.18857e-12
0.105486 	655875 	0.0209087 	472.8 	5.81715e-12 	-5.96551e-12
0.106485 	656023 	0.0223223 	477.298 	-2.60635e-12 	2.92152e-12
0.107485 	656182 	0.0238302 	481.77 	2.82618e-12 	-3.6123e-12
0.108485 	656352 	0.0254381 	486.211 	-1.40274e-13 	6.18171e-13
0.109485 	656532 	0.027152 	490.634 	3.02673e-12 	-3.02684e-12
0.110485 	656722 	0.0289782 	495.047 	-4.91186e-13 	4.91165e-13
0.111485 	656921 	0.030923 	499.469 	4.93889e-12 	-4.97507e-12
0.112484 	657130 	0.0329934 	503.921 	2.95221e-12 	-3.11977e-12
0.113484 	657350 	0.0351966 	508.421 	2.92916e-12 	-2.92915e-12
0.114484 	657586 	0.0375399 	512.972 	2.92705e-12 	-3.2559e-12
0.115484 	657842 	0.0400314 	517.572 	6.28537e-12 	-6.44547e-12
0.116484 	658126 	0.0426795 	522.178 	5.99842e-12 	-5.81506e-12
0.117484 	658444 	0.0454927 	526.755 	4.46984e-12 	-4.52474e-12
0.118483 	658793 	0.0484798 	531.301 	3.8228e-12 	-3.84518e-12
0.119483 	659168 	0.0516496 	535.813 	2.85384e-12 	-2.80042e-12
0.120483 	659568 	0.0550113 	540.3 	1.57949e-12 	-1.54654e-12
0.121483 	659987 	0.0585741 	544.801 	3.35222e-12 	-3.36646e-12
0.122483 	660427 	0.0623482 	549.332 	2.93864e-12 	-2.65376e-12
0.123483 	660884 	0.0663436 	553.938 	2.11632e-12 	-2.27438e-12
0.124482 	661372 	0.0705719 	558.597 	1.84887e-12 	-1.59952e-12
0.125482 	661910 	0.0750457 	563.259 	1.52603e-12 	-1.55293e-12
0.126482 	662510 	0.0797779 	567.872 	2.18073e-12 	-1.86311e-12
0.127482 	663163 	0.0847803 	572.466 	1.49079e-12 	-1.88049e-12
0.128482 	663864 	0.0900651 	577.04 	1.26312e-12 	-8.79737e-13
0.129482 	664598 	0.0956442 	581.642 	3.92691e-13 	-2.97868e-13
0.130481 	665359 	0.10153 	586.309 	2.42461e-13 	-1.82816e-13
0.131481 	666152 	0.107737 	591.054 	-1.32678e-14 	1.32841e-14
0.132481 	667019 	0.114285 	595.793 	-1.82186e-15 	-2.3714e-13
0.133481 	667981 	0.121191 	600.458 	-3.19115e-14 	-1.04307e-13
0.134481 	669025 	0.12847 	605.115 	2.2659e-13 	-4.4037e-14
0.135481 	670137 	0.136138 	609.79 	-1.01496e-12 	6.60553e-13
0.13648 	671285 	0.144208 	614.562 	-2.51769e-13 	1.15514e-13
0.13748 	672473 	0.152696 	619.432 	1.0047e-13 	-4.89643e-14
0.13848 	673773 	0.161632 	624.268 	8.51263e-14 	-4.3175e-14
0.13948 	675203 	0.171037 	629.001 	2.31841e-13 	-2.3184e-13
0.14048 	676745 	0.180932 	633.748 	5.79387e-14 	6.11939e-14
0.14148 	678356 	0.191331 	638.594 	3.24149e-13 	-4.01118e-13
0.14248 	680002 	0.202248 	643.605 	-7.71997e-14 	1.84117e-14
0.143479 	681794 	0.213726 	648.592 	-1.83769e-14 	-1.90506e-13
0.144479 	683765 	0.225798 	653.431 	-9.15635e-14 	-6.03286e-14
0.145479 	685881 	0.238485 	658.297 	1.15294e-13 	-1.58372e-13
0.146479 	688054 	0.251796 	663.346 	1.70068e-14 	-2.17595e-14
0.147479 	690302 	0.265762 	668.561 	2.28326e-13 	-1.68578e-13
0.148479 	692813 	0.280458 	673.595 	-1.08607e-13 	1.34409e-13
0.149478 	695540 	0.29591 	678.565 	4.62028e-14 	6.11434e-15
0.150478 	698349 	0.31212 	683.716 	7.67789e-14 	-7.91188e-16
0.151478 	701214 	0.329117 	689.128 	-5.72767e-14 	7.67374e-14
0.152478 	704435 	0.347021 	694.335 	-1.71225e-13 	1.86252e-13
0.153478 	707929 	0.36586 	699.455 	-1.09142e-13 	1.12521e-13
0.154478 	711465 	0.385607 	704.861 	-5.00496e-14 	5.0141e-14
0.155477 	715172 	0.406354 	710.477 	-2.50003e-13 	2.49157e-13
0.156477 	719327 	0.428234 	715.737 	1.42775e-13 	-1.41828e-13
0.157477 	723736 	0.451253 	721.16 	-3.00779e-13 	2.99864e-13
0.158477 	728134 	0.475374 	727.007 	6.08415e-15 	-6.2121e-15
0.159477 	733065 	0.500848 	732.578 	-1.49772e-13 	1.49493e-13
0.160477 	738426 	0.527719 	738.108 	-1.26187e-13 	1.24971e-13
0.161476 	743692 	0.55585 	744.146 	-2.62135e-13 	2.61727e-13
0.162476 	749590 	0.585593 	749.918 	1.84035e-15 	-1.21042e-15
0.163476 	756007 	0.616998 	755.722 	-1.76911e-13 	1.75722e-13
0.164476 	762417 	0.650008 	762.194 	-1.41277e-13 	1.4128e-13
0.165476 	769954 	0.685038 	767.896 	-1.40023e-13 	1.40112e-13
0.166476 	777008 	0.721745 	774.774 	-1.43434e-13 	1.43436e-13
0.167476 	785847 	0.760883 	780.465 	-9.6906e-14 	9.69466e-14
0.168475 	793582 	0.801765 	787.873 	-7.72622e-14 	7.72372e-14
0.169475 	803901 	0.845591 	793.467 	-1.30655e-13 	1.3072e-13
0.170475 	812396 	0.891098 	801.352 	-7.55527e-14 	7.5634e-14
0.171475 	824183 	0.940136 	806.907 	-1.03964e-13 	1.04153e-13
0.172475 	833723 	0.990854 	815.235 	-1.45358e-13 	1.46877e-13
0.173475 	847175 	1.04591 	820.838 	-9.55703e-14 	9.75393e-14
0.174474 	857939 	1.10265 	829.674 	-1.07833e-13 	1.09152e-13
0.175474 	873362 	1.16467 	835.313 	-1.00989e-13 	1.03017e-13
0.176474 	885506 	1.22823 	844.705 	-1.31058e-13 	1.31205e-13
0.177474 	903152 	1.29824 	850.39 	-8.54772e-14 	8.56386e-14
0.178474 	916871 	1.36956 	860.298 	-1.04799e-13 	1.04889e-13
0.179474 	936904 	1.44863 	866.088 	-8.47e-14 	8.48718e-14
0.180473 	952478 	1.52884 	876.339 	-6.36333e-14 	6.36125e-14
0.181473 	974894 	1.61797 	882.376 	-4.49731e-14 	4.49665e-14
0.182473 	992733 	1.70843 	892.653 	-3.76314e-14 	3.76039e-14
0.183473 	1.01738e+06 	1.80851 	899.199 	-3.16965e-14 	3.17654e-14
0.184473 	1.03824e+06 	1.91097 	909.256 	-3.43261e-14 	3.42613e-14
0.185473 	1.06528e+06 	2.02331 	916.579 	-2.68482e-14 	2.6796e-14
0.186473 	1.08982e+06 	2.1397 	926.369 	-1.92411e-14 	1.92411e-14
0.187472 	1.11939e+06 	2.26581 	934.501 	-8.67845e-15 	8.67845e-15
0.188472 	1.1487e+06 	2.39815 	944.061 	0 	0
0.189472 	1.18185e+06 	2.54061 	953.269 	-5.17294e-15 	5.17294e-15
0.190472 	1.21678e+06 	2.69211 	962.996 	8.77517e-15 	-8.77517e-15
0.191472 	1.25456e+06 	2.85393 	972.852 	1.09072e-14 	-1.09072e-14
0.192472 	1.29495e+06 	3.02633 	982.939 	1.81897e-14 	-1.81897e-14
0.193471 	1.33826e+06 	3.21005 	993.214 	-4.86967e-16 	4.86967e-16
0.194471 	1.38487e+06 	3.40591 	1003.73 	4.70971e-15 	-4.70971e-15
0.195471 	1.43586e+06 	3.61569 	1014.76 	9.9674e-15 	-9.9674e-15
0.196471 	1.49461e+06 	3.84518 	1027.3 	7.22221e-17 	-7.22221e-17
0.197471 	1.57041e+06 	4.11503 	1044.51 	-3.46317e-15 	3.4637e-15
0.198471 	1.64642e+06 	4.39242 	1059.37 	-1.75971e-15 	1.76184e-15
0.199471 	1.66242e+06 	4.5424 	1057.68 	2.16414e-15 	-2.15808e-15
0.20047 	1.59632e+06 	4.54083 	1031.14 	9.28354e-15 	-9.26482e-15
0.20147 	1.31029e+06 	4.09452 	920.616 	9.95302e-15 	-9.92784e-15
0.20247 	577524 	2.4586 	546.081 	4.43433e-15 	-4.42853e-15
0.20347 	138183 	1.31968 	82.4658 	-4.99412e-15 	4.99412e-15
0.20447 	101555 	1.1711 	3.98656 	-1.73169e-14 	1.73169e-14
0.20547 	100057 	1.16145 	0.151383 	-1.71839e-14 	1.71839e-14
0.206469 	99999.8 	1.16102 	0.00570496 	-6.0745e-15 	6.0745e-15
0.207469 	99997.7 	1.161 	0.000214362 	-7.54083e-15 	7.54083e-15
0.208469 	99997.6 	1.161 	8.02059e-06 	1.43889e-15 	-1.43889e-15
0.209469 	99997.6 	1.161 	2.98787e-07 	0 	0
0.210469 	99997.6 	1.161 	1.1074e-08 	0 	0
0.211469 	99997.6 	1.161 	4.46382e-10 	-6.60455e-15 	6.60455e-15
0.212468 	99997.6 	1.161 	-3.69042e-11 	-3.71426e-14 	3.71426e-14
0.213468 	99997.6 	1.161 	-8.63571e-11 	-3.7467e-14 	3.7467e-14
0.214468 	99997.6 	1.161 	-4.28534e-11 	-4.13526e-14 	4.13526e-14
0.215468 	99997.6 	1.161 	2.66756e-11 	-3.68974e-14 	3.68974e-14
0.216468 	99997.6 	1.161 	1.73486e-11 	-2.33236e-14 	2.33236e-14
0.217468 	99997.6 	1.161 	4.90128e-11 	-7.95302e-15 	7.95302e-15
0.218468 	99997.6 	1.161 	9.69167e-11 	0 	0
0.219467 	99997.6 	1.161 	1.25927e-10 	0 	0
0.220467 	99997.6 	1.161 	7.73524e-11 	0 	0
0.221467 	99997.6 	1.161 	1.15396e-11 	0 	0
0.222467 	99997.6 	1.161 	4.87613e-12 	3.87149e-16 	-3.87149e-16
0.223467 	99997.6 	1.161 	-4.46469e-11 	5.27043e-15 	-5.27043e-15
0.224467 	99997.6 	1.161 	-7.60837e-11 	1.97412e-14 	-1.97412e-14
0.225466 	99997.6 	1.161 	-9.41686e-11 	1.88957e-15 	-1.88957e-15
0.226466 	99997.6 	1.161 	-4.67499e-11 	-5.76066e-15 	5.76066e-15
0.227466 	99997.6 	1.161 	5.49662e-12 	-2.4966e-14 	2.4966e-14
0.228466 	99997.6 	1.161 	2.11973e-11 	-2.14545e-14 	2.14545e-14
0.229466 	99997.6 	1.161 	3.40715e-12 	-2.22833e-14 	2.22833e-14
0.230466 	99997.6 	1.161 	-2.42577e-11 	-2.73777e-14 	2.73777e-14
0.231466 	99997.6 	1.161 	-2.15925e-11 	-2.21049e-14 	2.21049e-14
0.232465 	99997.6 	1.161 	1.49534e-11 	-4.60752e-15 	4.60752e-15
0.233465 	99997.6 	1.161 	-2.06424e-12 	0 	0
0.234465 	99997.6 	1.161 	-3.13574e-11 	0 	0
0.235465 	99997.6 	1.161 	-3.04057e-11 	0 	0
0.236465 	99997.6 	1.161 	-5.59819e-12 	0 	0
0.237465 	99997.6 	1.161 	2.33796e-11 	0 	0
0.238464 	99997.6 	1.161 	9.69695e-12 	-2.17667e-16 	2.17667e-16
0.239464 	99997.6 	1.161 	-2.49303e-12 	-8.48471e-15 	8.48471e-15
0.240464 	99997.6 	1.161 	2.76296e-11 	-2.11988e-14 	2.11988e-14
0.241464 	99997.6 	1.161 	3.75189e-11 	-1.6927e-14 	1.6927e-14
0.242464 	99997.6 	1.161 	2.29737e-11 	-2.09914e-14 	2.09914e-14
0.243464 	99997.6 	1.161 	-2.09026e-11 	3.43525e-14 	-3.43525e-14
0.244464 	99997.6 	1.161 	3.39475e-12 	3.15213e-14 	-3.15213e-14
0.245463 	99997.6 	1.161 	2.13351e-11 	2.53053e-14 	-2.53053e-14
0.246463 	99997.6 	1.161 	1.78656e-11 	1.14048e-14 	-1.14048e-14
0.247463 	99997.6 	1.161 	-2.0851e-11 	6.04939e-15 	-6.04939e-15
0.248463 	99997.6 	1.161 	-2.61833e-11 	7.29846e-15 	-7.29846e-15
0.249463 	99997.6 	1.161 	-5.93206e-12 	-2.6894e-15 	2.6894e-15
0.250463 	99997.6 	1.161 	5.73732e-12 	-8.02135e-16 	8.02135e-16
0.251462 	99997.6 	1.161 	9.97102e-12 	0 	0
0.252462 	99997.6 	1.161 	2.16602e-11 	0 	0
0.253462 	99997.6 	1.161 	1.72822e-11 	0 	0
0.254462 	99997.6 	1.161 	-3.26805e-11 	0 	0
0.255462 	99997.6 	1.161 	-4.54684e-11 	0 	0
0.256462 	99997.6 	1.161 	-2.59809e-11 	-3.24689e-15 	3.24689e-15
0.257462 	99997.6 	1.161 	-7.60307e-13 	-1.45135e-14 	1.45135e-14
0.258461 	99997.6 	1.161 	-1.68593e-12 	-5.32134e-15 	5.32134e-15
0.259461 	99997.6 	1.161 	-1.17663e-11 	-1.29851e-15 	1.29851e-15
0.260461 	99997.6 	1.161 	-1.66226e-11 	0 	0
0.261461 	99997.6 	1.161 	-6.18709e-12 	0 	0
0.262461 	99997.6 	1.161 	1.35555e-11 	3.91409e-15 	-3.91409e-15
0.263461 	99997.6 	1.161 	2.77089e-11 	9.67726e-15 	-9.67726e-15
0.26446 	99997.6 	1.161 	2.81763e-11 	2.36475e-14 	-2.36475e-14
0.26546 	99997.6 	1.161 	-6.91035e-13 	2.28697e-14 	-2.28697e-14
0.26646 	99997.6 	1.161 	-2.49563e-12 	2.43214e-14 	-2.43214e-14
0.26746 	99997.6 	1.161 	1.81907e-12 	1.7938e-14 	-1.7938e-14
0.26846 	99997.6 	1.161 	-6.09356e-12 	1.10869e-14 	-1.10869e-14
0.26946 	99997.6 	1.161 	5.474e-12 	3.72413e-15 	-3.72413e-15
0.27046 	99997.6 	1.161 	-1.7483e-12 	4.1513e-16 	-4.1513e-16
0.271459 	99997.6 	1.161 	5.24355e-12 	0 	0
0.272459 	99997.6 	1.161 	1.37221e-11 	0 	0
0.273459 	99997.6 	1.161 	-2.46116e-11 	-1.26763e-15 	1.26763e-15
0.274459 	99997.6 	1.161 	-2.92469e-11 	-4.85619e-15 	4.85619e-15
0.275459 	99997.6 	1.161 	-2.36899e-11 	-1.13805e-14 	1.13805e-14
0.276459 	99997.6 	1.161 	1.12889e-11 	-2.80762e-15 	2.80762e-15
0.277458 	99997.6 	1.161 	2.31315e-11 	0 	0
0.278458 	99997.6 	1.161 	1.86494e-11 	0 	0
0.279458 	99997.6 	1.161 	1.43173e-11 	2.11198e-16 	-2.11198e-16
0.280458 	99997.6 	1.161 	7.4868e-12 	4.1653e-15 	-4.1653e-15
0.281458 	99997.6 	1.161 	2.96455e-12 	1.08793e-14 	-1.08793e-14
0.282458 	99997.6 	1.161 	-9.23832e-12 	1.92293e-14 	-1.92293e-14
0.283457 	99997.6 	1.161 	1.06411e-11 	5.51269e-15 	-5.51269e-15
0.284457 	99997.6 	1.161 	-1.96266e-11 	-1.2558e-14 	1.2558e-14
0.285457 	99997.6 	1.161 	-2.56209e-11 	-8.36857e-15 	8.36857e-15
0.286457 	99997.6 	1.161 	5.5103e-12 	-5.64569e-15 	5.64569e-15
0.287457 	99997.6 	1.161 	1.65831e-11 	-5.68557e-15 	5.68557e-15
0.288457 	99997.6 	1.161 	-3.47629e-12 	-6.83493e-15 	6.83493e-15
0.289457 	99997.6 	1.161 	-2.56005e-11 	-2.56393e-15 	2.56393e-15
0.290456 	99997.6 	1.161 	-1.66343e-11 	0 	0
0.291456 	99997.6 	1.161 	-1.12371e-11 	1.30547e-14 	-1.30547e-14
0.292456 	99997.6 	1.161 	-7.83132e-12 	-9.88644e-15 	9.88644e-15
0.293456 	99997.6 	1.161 	-2.80517e-12 	-1.05313e-15 	1.05313e-15
0.294456 	99997.6 	1.161 	3.45667e-12 	1.22327e-15 	-1.22327e-15
0.295456 	99997.6 	1.161 	1.95089e-11 	3.78769e-15 	-3.78769e-15
0.296455 	99997.6 	1.161 	2.46646e-11 	-3.03546e-15 	3.03546e-15
0.297455 	99997.6 	1.161 	1.84033e-11 	-2.23913e-16 	2.23913e-16
0.298455 	99997.6 	1.161 	1.14785e-11 	0 	0
0.299455 	99997.6 	1.161 	2.12709e-11 	-1.03035e-16 	1.03035e-16
0.300455 	99997.6 	1.161 	-2.23594e-11 	-1.08304e-14 	1.08304e-14
0.301455 	99997.6 	1.161 	-2.58387e-11 	-4.94426e-15 	4.94426e-15
0.302455 	99997.6 	1.161 	-1.11111e-11 	-6.70884e-15 	6.70884e-15
0.303454 	99997.6 	1.161 	2.56363e-12 	0 	0
0.304454 	99997.6 	1.161 	1.8406e-11 	3.8585e-15 	-3.8585e-15
0.305454 	99997.6 	1.161 	2.22694e-11 	0 	0
0.306454 	99997.6 	1.161 	1.11986e-11 	0 	0
0.307454 	99997.6 	1.161 	-7.58332e-12 	-3.98361e-15 	3.98361e-15
0.308454 	99997.6 	1.161 	-1.63192e-11 	-9.89551e-15 	9.89551e-15
0.309453 	99997.6 	1.161 	-1.45789e-11 	-1.10341e-14 	1.10341e-14
0.310453 	99997.6 	1.161 	4.38474e-11 	-3.88066e-15 	3.88066e-15
0.311453 	99997.6 	1.161 	8.62885e-11 	0 	0
0.312453 	99997.6 	1.161 	5.73339e-11 	0 	0
0.313453 	99997.6 	1.161 	1.21901e-11 	0 	0
0.314453 	99997.6 	1.161 	-4.79723e-11 	5.31516e-15 	-5.31516e-15
0.315453 	99997.6 	1.161 	-6.8834e-11 	1.88186e-15 	-1.88186e-15
0.316452 	99997.6 	1.161 	-4.4695e-11 	0 	0
0.317452 	99997.6 	1.161 	-2.21294e-11 	-8.30412e-15 	8.30412e-15
0.318452 	99997.6 	1.161 	9.62628e-12 	-1.94494e-14 	1.94494e-14
0.319452 	99997.6 	1.161 	2.18253e-11 	-2.94348e-14 	2.94348e-14
0.320452 	99997.6 	1.161 	3.91392e-12 	-3.4944e-14 	3.4944e-14
0.321452 	99997.6 	1.161 	-1.77667e-11 	-3.66946e-14 	3.66946e-14
0.322451 	99997.6 	1.161 	-2.28664e-12 	-3.46993e-14 	3.46993e-14
0.323451 	99997.6 	1.161 	3.16802e-11 	-3.76372e-14 	3.76372e-14
0.324451 	99997.6 	1.161 	3.74699e-11 	-3.21054e-14 	3.21054e-14
0.325451 	99997.6 	1.161 	-3.716e-11 	-1.18913e-14 	1.18913e-14
0.326451 	99997.6 	1.161 	-4.59486e-11 	-4.75969e-15 	4.75969e-15
0.327451 	99997.6 	1.161 	-2.77635e-11 	0 	0
0.328451 	99997.6 	1.161 	4.97484e-12 	2.78876e-15 	-2.78876e-15
0.32945 	99997.6 	1.161 	2.21419e-11 	0 	0
0.33045 	99997.6 	1.161 	1.94865e-11 	0 	0
0.33145 	99997.6 	1.161 	-1.82525e-11 	0 	0
0.33245 	99997.6 	1.161 	-2.82702e-11 	-1.7122e-15 	1.7122e-15
0.33345 	99997.6 	1.161 	-1.55e-11 	-7.36775e-15 	7.36775e-15
0.33445 	99997.6 	1.161 	-8.3354e-12 	-8.60891e-15 	8.60891e-15
0.33545 	99997.6 	1.161 	-3.22972e-12 	-1.36447e-15 	1.36447e-15
0.336449 	99997.6 	1.161 	1.07596e-11 	0 	0
0.337449 	99997.6 	1.161 	2.27791e-11 	0 	0
0.338449 	99997.6 	1.161 	2.9439e-11 	0 	0
0.339449 	99997.6 	1.161 	1.6509e-11 	0 	0
0.340449 	99997.6 	1.161 	-1.22811e-11 	-9.92158e-18 	9.92158e-18
0.341449 	99997.6 	1.161 	-8.4852e-13 	-3.54872e-15 	3.54872e-15
0.342448 	99997.6 	1.161 	-1.34043e-11 	0 	0
0.343448 	99997.6 	1.161 	-2.11814e-11 	5.6143e-16 	-5.6143e-16
0.344448 	99997.6 	1.161 	1.25711e-13 	3.67804e-15 	-3.67804e-15
0.345448 	99997.6 	1.161 	2.62129e-11 	2.27762e-15 	-2.27762e-15
0.346448 	99997.6 	1.161 	3.9737e-11 	3.06011e-15 	-3.06011e-15
0.347448 	99997.6 	1.161 	2.94433e-11 	-2.87771e-15 	2.87771e-15
0.348448 	99997.6 	1.161 	-1.51311e-11 	-1.4074e-14 	1.4074e-14
0.349447 	99997.6 	1.161 	-1.64765e-11 	-1.42399e-14 	1.42399e-14
0.350447 	99997.6 	1.161 	-4.97992e-12 	-1.58151e-14 	1.58151e-14
0.351447 	99997.6 	1.161 	-1.73814e-11 	-1.37119e-14 	1.37119e-14
0.352447 	99997.6 	1.161 	-1.63926e-11 	-2.22055e-15 	2.22055e-15
0.353447 	99997.6 	1.161 	1.4067e-12 	0 	0
0.354447 	99997.6 	1.161 	1.18161e-11 	8.95263e-16 	-8.95263e-16
0.355446 	99997.6 	1.161 	2.9501e-12 	3.79463e-15 	-3.79463e-15
0.356446 	99997.6 	1.161 	-3.23026e-11 	-4.01898e-15 	4.01898e-15
0.357446 	99997.6 	1.161 	-3.63032e-11 	-1.43755e-14 	1.43755e-14
0.358446 	99997.6 	1.161 	-2.49153e-11 	-1.72991e-14 	1.72991e-14
0.359446 	99997.6 	1.161 	-1.73809e-12 	-1.35773e-14 	1.35773e-14
0.360446 	99997.6 	1.161 	1.29118e-11 	-1.52471e-14 	1.52471e-14
0.361446 	99997.6 	1.161 	1.31493e-11 	-1.78354e-15 	1.78354e-15
0.362445 	99997.6 	1.161 	2.9047e-11 	0 	0
0.363445 	99997.6 	1.161 	2.52951e-11 	-2.76686e-15 	2.76686e-15
0.364445 	99997.6 	1.161 	4.13617e-12 	-3.29663e-16 	3.29663e-16
0.365445 	99997.6 	1.161 	1.41038e-11 	-3.06804e-15 	3.06804e-15
0.366445 	99997.6 	1.161 	2.15309e-11 	0 	0
0.367445 	99997.6 	1.161 	1.02178e-11 	2.23436e-15 	-2.23436e-15
0.368444 	99997.6 	1.161 	-2.25507e-11 	0 	0
0.369444 	99997.6 	1.161 	-3.49492e-11 	0 	0
0.370444 	99997.6 	1.161 	-2.33239e-11 	-2.13769e-15 	2.13769e-15
0.371444 	99997.6 	1.161 	-6.64544e-12 	-1.14739e-14 	1.14739e-14
0.372444 	99997.6 	1.161 	7.11783e-12 	-1.42377e-14 	1.42377e-14
0.373444 	99997.6 	1.161 	9.48076e-12 	-1.92816e-14 	1.92816e-14
0.374444 	99997.6 	1.161 	9.10879e-12 	-2.08646e-14 	2.08646e-14
0.375443 	99997.6 	1.161 	1.08049e-11 	-1.76297e-14 	1.76297e-14
0.376443 	99997.6 	1.161 	1.89279e-11 	-6.42752e-15 	6.42752e-15
0.377443 	99997.6 	1.161 	3.02006e-11 	-1.3101e-15 	1.3101e-15
0.378443 	99997.6 	1.161 	2.08572e-11 	0 	0
0.379443 	99997.6 	1.161 	-8.64706e-12 	3.80618e-15 	-3.80618e-15
0.380443 	99997.6 	1.161 	-2.07504e-11 	1.33235e-15 	-1.33235e-15
0.381442 	99997.6 	1.161 	-2.96385e-11 	3.39639e-15 	-3.39639e-15
0.382442 	99997.6 	1.161 	-2.01113e-11 	1.68418e-16 	-1.68418e-16
0.383442 	99997.6 	1.161 	-2.62389e-12 	0 	0
0.384442 	99997.6 	1.161 	-3.55734e-11 	-2.27047e-15 	2.27047e-15
0.385442 	99997.6 	1.161 	-4.06355e-11 	0 	0
0.386442 	99997.6 	1.161 	-2.39733e-11 	0 	0
0.387442 	99997.6 	1.161 	-7.10909e-12 	9.8909e-16 	-9.8909e-16
0.388441 	99997.6 	1.161 	3.06781e-11 	7.49558e-15 	-7.49558e-15
0.389441 	99997.6 	1.161 	4.31282e-11 	7.95715e-15 	-7.95715e-15
0.390441 	99997.6 	1.161 	3.28296e-11 	4.15892e-15 	-4.15892e-15
0.391441 	99997.6 	1.161 	2.52927e-11 	1.55137e-16 	-1.55137e-16
0.392441 	99997.6 	1.161 	1.27032e-11 	0 	0
0.393441 	99997.6 	1.161 	-4.69544e-12 	2.91925e-15 	-2.91925e-15
0.39444 	99997.6 	1.161 	-5.59886e-12 	0 	0
0.39544 	99997.6 	1.161 	-1.54138e-11 	0 	0
0.39644 	99997.6 	1.161 	-4.11786e-11 	0 	0
0.39744 	99997.6 	1.161 	-2.866e-11 	0 	0
0.39844 	99997.6 	1.161 	2.94656e-11 	0 	0
0.39944 	99997.6 	1.161 	2.83713e-11 	0 	0
0.40044 	99997.6 	1.161 	-9.70174e-12 	0 	0
0.401439 	99997.6 	1.161 	-2.21292e-11 	0 	0
0.402439 	99997.6 	1.161 	4.63011e-11 	2.40286e-15 	-2.40286e-15
0.403439 	99997.6 	1.161 	6.14326e-11 	1.00612e-14 	-1.00612e-14
0.404439 	99997.6 	1.161 	1.95741e-11 	1.7026e-14 	-1.7026e-14
0.405439 	99997.6 	1.161 	-2.48055e-12 	2.46085e-14 	-2.46085e-14
0.406439 	99997.6 	1.161 	3.78898e-12 	2.67103e-14 	-2.67103e-14
0.407438 	99997.6 	1.161 	-1.97815e-11 	1.49109e-14 	-1.49109e-14
0.408438 	99997.6 	1.161 	-2.67497e-11 	4.07346e-15 	-4.07346e-15
0.409438 	99997.6 	1.161 	-2.53292e-11 	6.83937e-16 	-6.83937e-16
0.410438 	99997.6 	1.161 	-2.59659e-11 	0 	0
0.411438 	99997.6 	1.161 	-2.33349e-11 	0 	0
0.412438 	99997.6 	1.161 	-4.60479e-12 	0 	0
0.413438 	99997.6 	1.161 	-4.47188e-12 	0 	0
0.414437 	99997.6 	1.161 	-2.03751e-11 	0 	0
0.415437 	99997.6 	1.161 	-1.66037e-11 	0 	0
0.416437 	99997.6 	1.161 	9.95994e-12 	0 	0
0.417437 	99997.6 	1.161 	1.86356e-11 	-1.29453e-16 	1.29453e-16
0.418437 	99997.6 	1.161 	3.06788e-12 	-9.89291e-16 	9.89291e-16
0.419437 	99997.6 	1.161 	-8.62219e-12 	2.45116e-15 	-2.45116e-15
0.420436 	99997.6 	1.161 	-1.37198e-11 	0 	0
0.421436 	99997.6 	1.161 	-1.64733e-11 	-1.30971e-15 	1.30971e-15
0.422436 	99997.6 	1.161 	-1.48153e-11 	-5.30986e-15 	5.30986e-15
0.423436 	99997.6 	1.161 	7.99505e-12 	-4.66461e-15 	4.66461e-15
0.424436 	99997.6 	1.161 	3.18635e-11 	-6.35447e-15 	6.35447e-15
0.425436 	99997.6 	1.161 	2.65032e-11 	-4.71953e-15 	4.71953e-15
0.426436 	99997.6 	1.161 	-1.98737e-11 	-8.60159e-15 	8.60159e-15
0.427435 	99997.6 	1.161 	4.93027e-12 	-4.2804e-15 	4.2804e-15
0.428435 	99997.6 	1.161 	2.23976e-11 	-3.60189e-15 	3.60189e-15
0.429435 	99997.6 	1.161 	1.08186e-11 	-1.58666e-18 	1.58666e-18
0.430435 	99997.6 	1.161 	-4.07209e-12 	1.3425e-15 	-1.3425e-15
0.431435 	99997.6 	1.161 	1.792e-11 	3.48797e-15 	-3.48797e-15
0.432435 	99997.6 	1.161 	3.41885e-11 	1.60963e-15 	-1.60963e-15
0.433434 	99997.6 	1.161 	7.12339e-12 	2.48777e-15 	-2.48777e-15
0.434434 	99997.6 	1.161 	-2.5279e-11 	8.49637e-16 	-8.49637e-16
0.435434 	99997.6 	1.161 	-1.16723e-11 	1.42261e-15 	-1.42261e-15
0.436434 	99997.6 	1.161 	2.49421e-11 	-2.57258e-15 	2.57258e-15
0.437434 	99997.6 	1.161 	4.16419e-11 	-2.07253e-15 	2.07253e-15
0.438434 	99997.6 	1.161 	1.94946e-11 	-4.02665e-15 	4.02665e-15
0.439434 	99997.6 	1.161 	-1.78789e-11 	-9.69837e-15 	9.69837e-15
0.440433 	99997.6 	1.161 	-1.82902e-11 	-1.43917e-14 	1.43917e-14
0.441433 	99997.6 	1.161 	-7.98024e-12 	-1.20907e-14 	1.20907e-14
0.442433 	99997.6 	1.161 	-2.56313e-11 	-2.85812e-15 	2.85812e-15
0.443433 	99997.6 	1.161 	-8.63789e-12 	7.34754e-15 	-7.34754e-15
0.444433 	99997.6 	1.161 	-1.3442e-11 	1.39138e-14 	-1.39138e-14
0.445433 	99997.6 	1.161 	-4.58218e-11 	1.02237e-14 	-1.02237e-14
0.446433 	99997.6 	1.161 	2.14792e-12 	5.41292e-15 	-5.41292e-15
0.447432 	99997.6 	1.161 	4.47186e-11 	2.88581e-15 	-2.88581e-15
0.448432 	99997.6 	1.161 	3.83992e-11 	2.4346e-15 	-2.4346e-15
0.449432 	99997.6 	1.161 	-3.32732e-11 	1.57691e-14 	-1.57691e-14
0.450432 	99997.6 	1.161 	-1.2118e-11 	6.96435e-15 	-6.96435e-15
0.451432 	99997.6 	1.161 	6.7686e-12 	-2.93652e-15 	2.93652e-15
0.452432 	99997.6 	1.161 	3.35724e-12 	-9.21034e-15 	9.21034e-15
0.453431 	99997.6 	1.161 	5.17728e-12 	-5.72677e-15 	5.72677e-15
0.454431 	99997.6 	1.161 	-3.17391e-12 	-4.45164e-15 	4.45164e-15
0.455431 	99997.6 	1.161 	-8.02879e-12 	-6.21066e-15 	6.21066e-15
0.456431 	99997.6 	1.161 	1.10798e-11 	-1.20666e-14 	1.20666e-14
0.457431 	99997.6 	1.161 	9.03946e-12 	-2.01927e-14 	2.01927e-14
0.458431 	99997.6 	1.161 	5.29278e-12 	-2.85325e-14 	2.85325e-14
0.459431 	99997.6 	1.161 	-1.63011e-11 	-3.25146e-14 	3.25146e-14
0.46043 	99997.6 	1.161 	-1.32283e-11 	-3.267e-14 	3.267e-14
0.46143 	99997.6 	1.161 	-3.17141e-12 	-2.69225e-14 	2.69225e-14
0.46243 	99997.6 	1.161 	-4.96343e-12 	-1.70984e-14 	1.70984e-14
0.46343 	99997.6 	1.161 	2.24431e-12 	-1.01122e-14 	1.01122e-14
0.46443 	99997.6 	1.161 	1.45613e-12 	-3.44132e-15 	3.44132e-15
0.46543 	99997.6 	1.161 	1.29298e-11 	0 	0
0.466429 	99997.6 	1.161 	2.34153e-11 	0 	0
0.467429 	99997.6 	1.161 	2.41826e-11 	0 	0
0.468429 	99997.6 	1.161 	9.64538e-12 	0 	0
0.469429 	99997.6 	1.161 	-2.71062e-11 	0 	0
0.470429 	99997.6 	1.161 	-3.0218e-11 	0 	0
0.471429 	99997.6 	1.161 	2.38722e-11 	1.54762e-15 	-1.54762e-15
0.472429 	99997.6 	1.161 	1.17988e-11 	4.36503e-15 	-4.36503e-15
0.473428 	99997.6 	1.161 	-7.40549e-13 	-5.47872e-15 	5.47872e-15
0.474428 	99997.6 	1.161 	-5.53604e-12 	-1.30708e-14 	1.30708e-14
0.475428 	99997.6 	1.161 	7.19612e-12 	-1.23422e-14 	1.23422e-14
0.476428 	99997.6 	1.161 	1.27155e-11 	-1.24265e-14 	1.24265e-14
0.477428 	99997.6 	1.161 	-1.56622e-12 	-6.54232e-15 	6.54232e-15
0.478428 	99997.6 	1.161 	-9.88325e-12 	1.22612e-15 	-1.22612e-15
0.479427 	99997.6 	1.161 	-2.05628e-11 	7.76799e-15 	-7.76799e-15
0.480427 	99997.6 	1.161 	-2.6348e-11 	1.50189e-15 	-1.50189e-15
0.481427 	99997.6 	1.161 	-1.29548e-12 	0 	0
0.482427 	99997.6 	1.161 	2.72343e-11 	0 	0
0.483427 	99997.6 	1.161 	2.55619e-11 	0 	0
0.484427 	99997.6 	1.161 	6.30528e-12 	-1.85464e-15 	1.85464e-15
0.485427 	99997.6 	1.161 	-1.41306e-11 	-6.14699e-15 	6.14699e-15
0.486426 	99997.6 	1.161 	-1.62632e-11 	-1.48592e-15 	1.48592e-15