/*--------------------------------*- C++ -*----------------------------------*\
| =========                 |                                                 |
| \\      /  F ield         | OpenFOAM: The Open Source CFD Toolbox           |
|  \\    /   O peration     | Version:  2312                                  |
|   \\  /    A nd           | Website:  www.openfoam.com                      |
|    \\/     M anipulation  |                                                 |
\*---------------------------------------------------------------------------*/
FoamFile
{
    version     2.0;
    format      ascii;
    arch        "LSB;label=32;scalar=64";
    class       volScalarField;
    location    "1e-05";
    object      thermo:e;
}
// * * * * * * * * * * * * * * * * * * * * * * * * * * * * * * * * * * * * * //

dimensions      [0 2 -2 0 0 0 0];

internalField   nonuniform List<scalar> 
500
(
9.07278e+08
9.06511e+08
9.04489e+08
9.01288e+08
8.96956e+08
8.91523e+08
8.85021e+08
8.77478e+08
8.68926e+08
8.59401e+08
8.48939e+08
8.37581e+08
8.25368e+08
8.12347e+08
7.98564e+08
7.84068e+08
7.68909e+08
7.53139e+08
7.36812e+08
7.1998e+08
7.02697e+08
6.85018e+08
6.66997e+08
6.48687e+08
6.30142e+08
6.11412e+08
5.92551e+08
5.73606e+08
5.54627e+08
5.3566e+08
5.1675e+08
4.9794e+08
4.7927e+08
4.60779e+08
4.42503e+08
4.24476e+08
4.0673e+08
3.89294e+08
3.72194e+08
3.55455e+08
3.39098e+08
3.23143e+08
3.07607e+08
2.92505e+08
2.77848e+08
2.63648e+08
2.49911e+08
2.36645e+08
2.23853e+08
2.11538e+08
1.99699e+08
1.88336e+08
1.77445e+08
1.67024e+08
1.57065e+08
1.47562e+08
1.38507e+08
1.29891e+08
1.21705e+08
1.13937e+08
1.06576e+08
9.96104e+07
9.30272e+07
8.68135e+07
8.09561e+07
7.54414e+07
7.02556e+07
6.53851e+07
6.08159e+07
5.65342e+07
5.25263e+07
4.87788e+07
4.52783e+07
4.20117e+07
3.89663e+07
3.61297e+07
3.34898e+07
3.10349e+07
2.87537e+07
2.66355e+07
2.46699e+07
2.2847e+07
2.11572e+07
1.95915e+07
1.81411e+07
1.67978e+07
1.55531e+07
1.43988e+07
1.33301e+07
1.23664e+07
1.14912e+07
1.06802e+07
9.91492e+06
9.17694e+06
8.44446e+06
7.68773e+06
6.86181e+06
5.89347e+06
4.66349e+06
3.04864e+06
1.29368e+06
335593
218011
215351
215311
215310
215310
215310
215310
215310
215310
215310
215310
215310
215310
215310
215310
215310
215310
215310
215310
215310
215310
215310
215310
215310
215310
215310
215310
215310
215310
215310
215310
215310
215310
215310
215310
215310
215310
215310
215310
215310
215310
215310
215310
215310
215310
215310
215310
215310
215310
215310
215310
215310
215310
215310
215310
215310
215310
215310
215310
215310
215310
215310
215310
215310
215310
215310
215310
215310
215310
215310
215310
215310
215310
215310
215310
215310
215310
215310
215310
215310
215310
215310
215310
215310
215310
215310
215310
215310
215310
215310
215310
215310
215310
215310
215310
215310
215310
215310
215310
215310
215310
215310
215310
215310
215310
215310
215310
215310
215310
215310
215310
215310
215310
215310
215310
215310
215310
215310
215310
215310
215310
215310
215310
215310
215310
215310
215310
215310
215310
215310
215310
215310
215310
215310
215310
215310
215310
215310
215310
215310
215310
215310
215310
215310
215310
215310
215310
215310
215310
215310
215310
215310
215310
215310
215310
215310
215310
215310
215310
215310
215310
215310
215310
215310
215310
215310
215310
215310
215310
215310
215310
215310
215310
215310
215310
215310
215310
215310
215310
215310
215310
215310
215310
215310
215310
215310
215310
215310
215310
215310
215310
215310
215310
215310
215310
215310
215310
215310
215310
215310
215310
215310
215310
215310
215310
215310
215310
215310
215310
215310
215310
215310
215310
215310
215310
215310
215310
215310
215310
215310
215310
215310
215310
215310
215310
215310
215310
215310
215310
215310
215310
215310
215310
215310
215310
215310
215310
215310
215310
215310
215310
215310
215310
215310
215310
215310
215310
215310
215310
215310
215310
215310
215310
215310
215310
215310
215310
215310
215310
215310
215310
215310
215310
215310
215310
215310
215310
215310
215310
215310
215310
215310
215310
215310
215310
215310
215310
215310
215310
215310
215310
215310
215310
215310
215310
215310
215310
215310
215310
215310
215310
215310
215310
215310
215310
215310
215310
215310
215310
215310
215310
215310
215310
215310
215310
215310
215310
215310
215310
215310
215310
215310
215310
215310
215310
215310
215310
215310
215310
215310
215310
215310
215310
215310
215310
215310
215310
215310
215310
215310
215310
215310
215310
215310
215310
215310
215310
215310
215310
215310
215310
215310
215310
215310
215310
215310
215310
215310
215310
215310
215310
215310
215310
215310
215310
215310
215310
215310
215310
215310
215310
215310
215310
215310
215310
215310
215310
215310
215310
215310
215310
215310
215310
215310
215310
215310
215310
215310
215310
215310
215310
215310
215310
215310
215310
215310
215310
215310
215310
215310
215310
215310
215310
215310
215310
215310
215310
215310
)
;

boundaryField
{
    wedge0
    {
        type            wedge;
    }
    wedge1
    {
        type            wedge;
    }
    wedge2
    {
        type            wedge;
    }
    wedge3
    {
        type            wedge;
    }
    outlet
    {
        type            zeroGradient;
    }
    defaultFaces
    {
        type            empty;
    }
}


// ************************************************************************* //
