/*--------------------------------*- C++ -*----------------------------------*\
| =========                 |                                                 |
| \\      /  F ield         | OpenFOAM: The Open Source CFD Toolbox           |
|  \\    /   O peration     | Version:  2312                                  |
|   \\  /    A nd           | Website:  www.openfoam.com                      |
|    \\/     M anipulation  |                                                 |
\*---------------------------------------------------------------------------*/
FoamFile
{
    version     2.0;
    format      ascii;
    arch        "LSB;label=32;scalar=64";
    class       volVectorField;
    location    "1e-05";
    object      U;
}
// * * * * * * * * * * * * * * * * * * * * * * * * * * * * * * * * * * * * * //

dimensions      [0 1 -1 0 0 0 0];

internalField   nonuniform List<vector> 
500
(
(27.5011 -3.90798e-10 3.94698e-10)
(49.5467 -4.28503e-10 4.31512e-10)
(74.1417 -4.7616e-10 4.80162e-10)
(100.271 -4.82068e-10 4.8817e-10)
(127.016 -4.34221e-10 4.3756e-10)
(154.061 -4.4079e-10 4.42058e-10)
(181.275 -4.38808e-10 4.38673e-10)
(208.595 -4.27835e-10 4.27749e-10)
(235.986 -3.92949e-10 3.92956e-10)
(263.427 -3.44733e-10 3.44749e-10)
(290.906 -3.0112e-10 3.01145e-10)
(318.416 -2.62307e-10 2.62335e-10)
(345.95 -2.27497e-10 2.27532e-10)
(373.505 -1.89752e-10 1.89752e-10)
(401.079 -1.5183e-10 1.51818e-10)
(428.669 -1.14264e-10 1.14258e-10)
(456.275 -8.28083e-11 8.28278e-11)
(483.895 -6.394e-11 6.39075e-11)
(511.529 -4.92254e-11 4.92165e-11)
(539.177 -4.50881e-11 4.51007e-11)
(566.839 -4.28861e-11 4.28825e-11)
(594.514 -4.32646e-11 4.32548e-11)
(622.204 -4.5617e-11 4.55964e-11)
(649.908 -5.00492e-11 5.0028e-11)
(677.626 -5.08713e-11 5.0876e-11)
(705.361 -4.88203e-11 4.88197e-11)
(733.111 -4.74373e-11 4.74357e-11)
(760.878 -4.85412e-11 4.85407e-11)
(788.663 -4.25428e-11 4.25426e-11)
(816.467 -3.93384e-11 3.93384e-11)
(844.29 -3.78699e-11 3.78699e-11)
(872.135 -3.72413e-11 3.72413e-11)
(900.002 -3.16926e-11 3.16926e-11)
(927.892 -2.81668e-11 2.81668e-11)
(955.808 -2.39825e-11 2.39825e-11)
(983.75 -2.14697e-11 2.14697e-11)
(1011.72 -2.05241e-11 2.05241e-11)
(1039.72 -1.99786e-11 1.99786e-11)
(1067.76 -1.94676e-11 1.94676e-11)
(1095.83 -1.94002e-11 1.94002e-11)
(1123.94 -1.86628e-11 1.86628e-11)
(1152.09 -1.72735e-11 1.72735e-11)
(1180.28 -1.52425e-11 1.52425e-11)
(1208.52 -1.29168e-11 1.29168e-11)
(1236.81 -1.1412e-11 1.1412e-11)
(1265.15 -1.0705e-11 1.0705e-11)
(1293.56 -9.51166e-12 9.51166e-12)
(1322.02 -7.71959e-12 7.71959e-12)
(1350.56 -5.27581e-12 5.27581e-12)
(1379.17 -3.9024e-12 3.9024e-12)
(1407.87 -2.02705e-12 2.02705e-12)
(1436.65 -7.39548e-13 7.39548e-13)
(1465.52 -8.30306e-14 8.30306e-14)
(1494.5 -1.59832e-15 1.59832e-15)
(1523.6 0 1.50439e-32)
(1552.81 0 9.36155e-33)
(1582.16 0 8.64289e-33)
(1611.66 0 1.26836e-32)
(1641.31 2.39875e-13 -2.39875e-13)
(1671.14 1.12987e-12 -1.12987e-12)
(1701.16 7.47082e-13 -7.47082e-13)
(1731.4 6.57717e-13 -6.57717e-13)
(1761.86 6.66847e-13 -6.66847e-13)
(1792.57 2.67024e-13 -2.67024e-13)
(1823.56 1.5685e-14 -1.5685e-14)
(1854.85 0 0)
(1886.48 1.36366e-13 -1.36366e-13)
(1918.48 6.60692e-13 -6.60692e-13)
(1950.88 5.2904e-13 -5.2904e-13)
(1983.74 5.2627e-13 -5.2627e-13)
(2017.1 3.8157e-13 -3.8157e-13)
(2051.01 1.5333e-13 -1.5333e-13)
(2085.53 9.16275e-15 -9.16275e-15)
(2120.72 0 0)
(2156.68 1.14758e-14 -1.14758e-14)
(2193.47 3.05583e-13 -3.05583e-13)
(2231.21 3.10028e-13 -3.10028e-13)
(2269.98 1.79848e-13 -1.79848e-13)
(2309.93 2.98777e-14 -2.98777e-14)
(2351.2 -3.93811e-15 3.93811e-15)
(2393.93 0 5.26038e-34)
(2438.32 0 2.76527e-34)
(2484.57 1.64073e-13 -1.64073e-13)
(2532.88 1.28743e-13 -1.2874e-13)
(2583.47 4.49966e-14 -4.11587e-14)
(2636.51 -9.09891e-14 9.32992e-14)
(2692.04 -1.35456e-13 1.37492e-13)
(2749.88 -2.24437e-13 2.26182e-13)
(2809.54 -1.5131e-13 1.52822e-13)
(2870.46 -9.39359e-14 9.51414e-14)
(2930.32 -1.47244e-13 1.48283e-13)
(2985.75 -9.85121e-14 9.92874e-14)
(3031.52 -5.94799e-14 5.98062e-14)
(3059.43 -1.14777e-13 1.15154e-13)
(3056.83 -6.94223e-14 6.98383e-14)
(3004.24 -4.94693e-14 4.94437e-14)
(2871.79 -3.60028e-14 3.59282e-14)
(2614 -2.43914e-14 2.43602e-14)
(2166.28 -1.4863e-14 1.48615e-14)
(1471.43 -7.58796e-16 7.58796e-16)
(637.235 3.49025e-16 -3.49025e-16)
(104.943 0 0)
(4.58651 0 0)
(0.107776 0 5.45839e-17)
(0.00238988 0 -5.35568e-17)
(5.25998e-05 5.07797e-15 -5.10567e-15)
(1.14989e-06 -2.82371e-17 -3.40018e-18)
(2.49724e-08 4.86057e-15 -4.86611e-15)
(5.4141e-10 0 4.96811e-17)
(1.34384e-11 0 0)
(1.68014e-12 5.63227e-15 -5.63227e-15)
(-3.34556e-12 2.03346e-14 -2.03346e-14)
(-5.97948e-12 1.16591e-14 -1.16712e-14)
(-6.33301e-13 1.19878e-14 -1.2012e-14)
(2.33154e-12 2.10071e-14 -2.10436e-14)
(6.362e-13 2.11761e-14 -2.12256e-14)
(3.03971e-12 6.3457e-15 -6.38025e-15)
(2.82579e-12 0 -4.23619e-17)
(3.76323e-13 -2.59963e-15 2.60856e-15)
(5.81614e-13 -1.31599e-14 1.31645e-14)
(-9.57316e-13 0 0)
(-3.38746e-12 1.278e-14 -1.278e-14)
(-3.86354e-12 2.5731e-15 -2.5731e-15)
(-2.8426e-12 0 0)
(-2.50993e-13 0 0)
(2.17798e-12 0 0)
(1.09025e-12 0 0)
(-1.91848e-12 0 0)
(-1.25759e-12 0 0)
(1.02315e-12 0 0)
(1.33176e-12 0 0)
(-3.33038e-13 0 0)
(6.9315e-13 0 0)
(2.69312e-12 -3.81309e-15 3.81309e-15)
(1.51606e-12 -1.38621e-14 1.38621e-14)
(1.83657e-12 -1.36621e-14 1.36621e-14)
(1.6183e-12 2.31635e-15 -2.31635e-15)
(-2.58575e-12 0 0)
(-5.96326e-12 0 0)
(-3.3265e-12 0 0)
(3.48939e-13 0 0)
(4.04239e-12 -1.84297e-15 1.84297e-15)
(4.01589e-12 -9.26249e-15 9.26249e-15)
(1.24674e-12 0 0)
(2.05553e-12 0 0)
(1.81782e-12 0 0)
(2.09045e-13 0 0)
(-6.51134e-13 0 0)
(-9.55532e-13 0 0)
(-1.03035e-12 5.05684e-15 -5.05684e-15)
(-4.3917e-12 0 0)
(8.55799e-13 -4.92408e-15 4.92408e-15)
(2.44408e-12 0 0)
(8.00828e-13 3.21786e-15 -3.21786e-15)
(4.65931e-12 -3.13684e-15 3.13684e-15)
(-4.57845e-13 0 0)
(-3.10525e-12 0 0)
(-2.47233e-12 -7.01966e-15 7.01966e-15)
(-1.22922e-12 -4.89797e-15 4.89797e-15)
(-5.76619e-13 -1.34688e-14 1.34782e-14)
(-1.6248e-12 -1.31232e-14 1.31297e-14)
(3.16767e-12 -4.06127e-15 4.06309e-15)
(6.24897e-12 -3.72045e-15 3.72045e-15)
(1.12559e-12 -1.65733e-14 1.65733e-14)
(-1.79114e-12 -4.06085e-15 4.06085e-15)
(-2.7404e-12 0 0)
(-1.80194e-12 0 0)
(-1.19659e-12 4.02848e-15 -4.02848e-15)
(-4.62186e-12 0 0)
(-3.43188e-13 0 0)
(1.28115e-12 0 0)
(-4.82947e-14 -3.84299e-15 3.83341e-15)
(-6.84494e-13 0 -1.9655e-17)
(8.98712e-13 0 0)
(3.04751e-12 -7.42393e-15 7.42393e-15)
(-1.06253e-12 -7.38197e-15 7.38197e-15)
(-6.43111e-12 -4.27187e-17 4.27187e-17)
(-2.84625e-12 0 0)
(3.98979e-12 -3.15184e-17 3.15184e-17)
(8.12928e-13 6.99342e-15 -6.99342e-15)
(-1.1041e-12 6.96244e-15 -6.96244e-15)
(-2.20793e-12 3.18585e-17 -3.18585e-17)
(-3.32388e-12 0 0)
(-3.46172e-12 0 0)
(1.35176e-12 0 0)
(5.80522e-12 0 0)
(4.13527e-12 0 0)
(1.65372e-12 0 0)
(-3.97848e-12 0 0)
(-1.55046e-12 0 0)
(-4.56116e-13 3.11472e-15 -3.11472e-15)
(-1.16763e-12 0 0)
(3.10069e-12 0 0)
(1.66792e-12 -2.02339e-15 2.02339e-15)
(-2.61238e-12 1.98094e-15 -1.98094e-15)
(7.71656e-13 0 0)
(5.69831e-12 -2.92705e-15 2.92705e-15)
(3.97373e-12 0 0)
(1.39127e-12 0 0)
(-4.23672e-12 5.68424e-15 -5.68009e-15)
(-5.38114e-12 5.6597e-15 -5.65086e-15)
(1.24734e-12 3.30793e-17 -2.9033e-17)
(9.76954e-13 0 0)
(1.19907e-12 -6.08269e-16 6.08269e-16)
(2.58871e-12 -6.64045e-15 6.64045e-15)
(1.43193e-12 -7.23533e-15 7.23533e-15)
(-1.03221e-12 -2.49737e-15 2.49737e-15)
(-6.17075e-12 -3.41201e-15 3.41201e-15)
(-9.36251e-13 9.05683e-16 -9.05683e-16)
(3.67639e-12 0 0)
(1.50601e-12 0 0)
(-8.4094e-14 -3.22242e-16 3.22242e-16)
(7.88364e-13 -5.66887e-15 5.66887e-15)
(-1.10525e-12 -6.0309e-15 6.0309e-15)
(-3.31897e-12 -1.13234e-14 1.13234e-14)
(3.26754e-13 -1.16786e-14 1.16786e-14)
(-9.39212e-13 -3.40132e-15 3.40132e-15)
(-3.10709e-12 0 0)
(-6.3614e-14 0 0)
(2.34328e-12 0 0)
(3.348e-12 0 0)
(1.36771e-12 0 0)
(1.08007e-12 0 0)
(5.71618e-12 2.08928e-15 -2.08928e-15)
(1.90325e-12 8.66403e-15 -8.66403e-15)
(-4.44574e-12 1.78616e-15 -1.78616e-15)
(-1.64504e-12 -1.32407e-15 1.32407e-15)
(-3.0055e-13 -8.79227e-15 8.79227e-15)
(-2.74967e-12 -4.64785e-15 4.64785e-15)
(2.90431e-13 -4.84913e-15 4.84913e-15)
(1.52708e-13 -9.32177e-15 9.32177e-15)
(-4.56711e-13 -2.53214e-15 2.53214e-15)
(5.68057e-13 0 0)
(-4.6084e-12 0 0)
(-2.11622e-12 0 0)
(3.9817e-12 0 0)
(5.25443e-12 0 0)
(1.43334e-12 0 0)
(-2.63003e-12 0 0)
(-2.0754e-12 -2.29754e-15 2.29754e-15)
(-1.56491e-12 -8.49996e-15 8.49996e-15)
(-2.68186e-12 -4.21551e-15 4.21551e-15)
(-1.55956e-12 -3.82628e-15 3.82628e-15)
(2.0282e-12 8.04335e-15 -8.04335e-15)
(1.05898e-12 1.04912e-14 -1.04912e-14)
(-1.95705e-12 8.38797e-15 -8.38797e-15)
(-1.68886e-12 -1.40247e-15 1.40247e-15)
(-1.0629e-12 0 0)
(4.03156e-12 3.6725e-15 -3.6725e-15)
(4.51572e-12 -3.62059e-15 3.62059e-15)
(-1.87585e-12 -5.45988e-18 5.45988e-18)
(-3.61823e-12 0 0)
(-3.8127e-12 0 0)
(-2.96015e-12 0 0)
(1.02249e-12 0 0)
(6.16621e-12 0 0)
(2.87138e-12 -1.70518e-15 1.70518e-15)
(-1.46861e-12 -6.81826e-15 6.81826e-15)
(-1.31151e-12 -1.70503e-15 1.70503e-15)
(-8.10146e-13 0 0)
(8.42718e-13 0 0)
(6.6429e-14 0 0)
(-2.32559e-12 0 0)
(-1.70952e-12 2.01759e-15 -2.01759e-15)
(3.04989e-12 7.26284e-15 -7.26284e-15)
(8.16152e-12 5.48722e-15 -5.48722e-15)
(2.11593e-12 6.91959e-15 -6.91959e-15)
(-8.00112e-12 1.86757e-15 -1.86757e-15)
(-4.7946e-12 0 0)
(6.5833e-13 0 0)
(4.07999e-13 0 0)
(6.32602e-13 0 0)
(-1.99224e-13 0 0)
(-1.26902e-12 0 0)
(1.74844e-12 -1.48909e-15 1.48909e-15)
(1.6936e-12 -5.95563e-15 5.95563e-15)
(2.35389e-12 -1.4893e-15 1.4893e-15)
(5.58527e-12 0 0)
(2.93628e-12 0 0)
(-6.04169e-12 0 0)
(-2.4864e-12 0 0)
(7.78761e-12 9.41209e-16 -9.41209e-16)
(4.06881e-12 4.71746e-15 -4.71746e-15)
(-4.77085e-12 0 0)
(-4.49804e-12 -4.65749e-15 4.65749e-15)
(-2.0775e-12 -9.34518e-16 9.34518e-16)
(-1.37739e-12 0 0)
(-1.11605e-12 0 0)
(-7.51983e-13 -2.71594e-15 2.71594e-15)
(1.65044e-12 0 0)
(2.56017e-12 0 0)
(1.92279e-12 1.78023e-15 -1.78023e-15)
(3.6242e-13 -1.75443e-15 1.75443e-15)
(-2.75294e-14 0 0)
(9.05688e-13 0 0)
(1.511e-12 1.73201e-15 -1.73201e-15)
(7.05401e-13 -1.70825e-15 1.70825e-15)
(1.37877e-12 0 0)
(-9.30756e-13 0 0)
(-5.42636e-12 0 0)
(-2.81872e-12 -2.50373e-15 2.50373e-15)
(2.41907e-12 -2.42847e-19 2.42847e-19)
(4.22065e-12 -2.47046e-15 2.47046e-15)
(5.77229e-13 0 0)
(-2.73398e-12 2.43827e-15 -2.43827e-15)
(-1.16961e-12 0 0)
(-5.02433e-12 0 0)
(-3.86142e-12 0 0)
(2.45062e-12 -4.75044e-15 4.75044e-15)
(8.09551e-13 -4.73528e-15 4.73528e-15)
(-2.17699e-12 -1.60424e-17 1.60424e-17)
(2.5235e-12 0 0)
(4.08747e-12 0 0)
(-5.69756e-12 0 0)
(-7.01702e-12 2.28531e-15 -2.28531e-15)
(-9.80343e-13 0 0)
(1.48168e-12 0 0)
(4.87891e-12 0 0)
(7.48927e-12 -2.33258e-15 2.33258e-15)
(3.96061e-12 -9.09328e-15 9.09328e-15)
(-2.92203e-12 -1.14073e-14 1.14073e-14)
(-2.13542e-12 -1.15218e-14 1.15218e-14)
(-3.72184e-13 -9.17793e-15 9.17793e-15)
(-1.38826e-12 -1.11809e-14 1.11809e-14)
(5.55905e-13 -8.86532e-15 8.86532e-15)
(1.49702e-12 -2.28636e-15 2.28636e-15)
(1.14532e-12 0 0)
(5.75025e-13 0 0)
(-2.92316e-12 2.0949e-15 -2.0949e-15)
(-3.70896e-12 0 0)
(2.67423e-12 0 0)
(5.20416e-12 0 0)
(3.04739e-12 0 0)
(-2.01949e-13 -4.06498e-15 4.06498e-15)
(-7.7989e-13 -4.05332e-15 4.05332e-15)
(7.77215e-13 -1.27789e-17 1.27789e-17)
(5.7659e-13 0 0)
(-3.11966e-12 0 0)
(-4.95405e-12 0 0)
(-2.47009e-12 0 0)
(-8.89987e-13 0 0)
(5.10914e-12 -1.93826e-15 1.93826e-15)
(2.81105e-12 0 0)
(-5.22359e-12 0 0)
(-3.91746e-12 1.90499e-15 -1.90499e-15)
(7.83888e-13 7.08952e-19 -7.08952e-19)
(5.20964e-13 1.8833e-15 -1.8833e-15)
(8.85956e-13 0 0)
(5.55612e-13 -3.09524e-15 3.09524e-15)
(-4.57254e-13 -2.46129e-15 2.46129e-15)
(2.62249e-12 -5.5203e-15 5.5203e-15)
(-9.99598e-13 -4.89366e-15 4.89366e-15)
(-2.10226e-12 -6.20735e-16 6.20735e-16)
(8.93239e-13 0 0)
(9.53358e-13 0 0)
(2.28744e-12 1.78863e-15 -1.78863e-15)
(5.13814e-12 0 0)
(4.69506e-13 -4.24116e-15 4.24116e-15)
(-2.97462e-12 -4.93145e-15 4.93145e-15)
(-1.87348e-12 -2.10969e-15 2.10969e-15)
(-2.84655e-12 -2.79121e-15 2.79121e-15)
(-1.60672e-12 0 0)
(-9.40081e-13 0 0)
(2.01168e-12 -1.71067e-15 1.71067e-15)
(1.72519e-12 9.04401e-19 -9.04401e-19)
(1.13021e-12 -1.69139e-15 1.69139e-15)
(2.85299e-12 0 0)
(2.59673e-13 1.67392e-15 -1.67392e-15)
(-2.04742e-12 0 0)
(-3.33085e-12 0 0)
(-3.66909e-12 -3.46919e-16 3.46919e-16)
(-6.10725e-13 -4.01786e-15 4.01786e-15)
(4.59673e-12 -4.40184e-15 4.40184e-15)
(4.21191e-12 -8.03344e-15 8.03344e-15)
(1.20293e-12 -8.41409e-15 8.41409e-15)
(-2.04073e-12 -6.66486e-15 6.66486e-15)
(-3.09504e-12 -1.72923e-15 1.72923e-15)
(-3.4432e-13 0 0)
(-2.78886e-12 0 0)
(-2.47147e-13 1.56936e-15 -1.56936e-15)
(8.82505e-14 5.84293e-19 -5.84293e-19)
(-3.86775e-12 1.5534e-15 -1.5534e-15)
(-2.14025e-12 0 0)
(-1.10879e-12 0 0)
(2.78974e-12 -1.52891e-15 1.52891e-15)
(2.48953e-12 0 0)
(1.1804e-12 0 0)
(7.35211e-13 0 0)
(1.24911e-12 2.99562e-15 -2.99562e-15)
(7.78049e-14 2.98808e-15 -2.98808e-15)
(-2.34231e-12 8.00328e-18 -8.00328e-18)
(1.76001e-12 0 0)
(1.4501e-12 0 0)
(-1.02867e-12 1.45943e-15 -1.45943e-15)
(-1.81829e-12 0 0)
(1.11846e-12 0 0)
(6.22305e-13 0 0)
(1.45022e-13 0 0)
(6.08577e-13 0 0)
(-9.8888e-13 0 0)
(-2.59637e-12 0 0)
(-3.37685e-13 0 0)
(4.84729e-12 -1.0434e-15 1.0434e-15)
(3.07406e-12 7.05821e-16 -7.05821e-16)
(-2.06328e-12 5.21586e-15 -5.21586e-15)
(-3.38103e-13 6.94751e-15 -6.94751e-15)
(2.11136e-12 5.92795e-15 -5.92795e-15)
(-4.20781e-14 1.5957e-15 -1.5957e-15)
(-3.01183e-12 0 0)
(2.19497e-13 -1.34765e-15 1.34765e-15)
(8.54829e-13 0 0)
(-1.00909e-12 0 0)
(-7.18794e-13 0 0)
(-2.1254e-12 0 0)
(2.46088e-12 0 0)
(1.48152e-12 0 0)
(-1.22997e-12 0 0)
(-7.77335e-13 0 0)
(-8.34316e-13 -8.62832e-16 8.62832e-16)
(3.94375e-12 8.54082e-16 -8.54082e-16)
(3.31735e-12 0 0)
(2.49349e-13 0 0)
(1.16476e-12 -1.26726e-15 1.26726e-15)
(2.2588e-12 -1.79693e-18 1.79693e-18)
(3.2118e-13 -1.25611e-15 1.25611e-15)
(-3.58222e-12 -1.53986e-18 1.53986e-18)
(-1.92523e-12 -1.24343e-15 1.24343e-15)
(-1.73079e-12 0 0)
(1.57744e-13 -8.2279e-16 8.2279e-16)
(4.38268e-12 8.15074e-16 -8.15074e-16)
(3.24181e-12 0 0)
(-3.08413e-12 1.21387e-15 -1.21387e-15)
(-6.20293e-12 -3.87675e-19 3.87675e-19)
(-1.73098e-12 1.20285e-15 -1.20285e-15)
(1.45586e-12 0 0)
(-5.66175e-13 7.92362e-16 -7.92362e-16)
(8.17965e-13 -7.9127e-16 7.9127e-16)
(1.26414e-12 0 0)
(1.74821e-12 0 0)
(4.8363e-12 -1.93501e-15 1.93501e-15)
(-2.71125e-12 -6.19614e-15 6.19614e-15)
(-6.10549e-12 -5.43999e-15 5.43999e-15)
(-1.20425e-12 0 0)
(2.60656e-12 6.35588e-15 -6.35588e-15)
(4.0845e-12 5.80368e-15 -5.80368e-15)
(-1.73673e-12 1.75658e-15 -1.75658e-15)
(-6.8479e-12 0 0)
(-8.73232e-13 0 0)
(5.86044e-12 9.53667e-16 -9.53667e-16)
(4.52777e-12 4.14468e-15 -4.14468e-15)
(-1.51733e-12 6.24716e-16 -6.24716e-16)
(-5.95188e-12 -6.57899e-16 6.57899e-16)
(-1.09614e-12 -4.11906e-15 4.11906e-15)
(4.27665e-12 -9.56032e-16 9.56032e-16)
(4.19133e-12 0 0)
(-1.16076e-12 0 0)
(-3.62951e-12 -3.40445e-16 3.40445e-16)
(-8.59728e-13 -2.84333e-15 2.84333e-15)
(4.20274e-13 -7.49014e-15 7.49014e-15)
(1.39006e-12 -9.67393e-15 9.67393e-15)
(2.863e-12 -9.71131e-15 9.71131e-15)
(2.60849e-12 -7.42813e-15 7.42813e-15)
(-1.98035e-12 -2.82998e-15 2.82998e-15)
(-2.38791e-12 -3.59925e-16 3.59925e-16)
(2.86913e-12 0 0)
(2.08614e-12 0 0)
(-7.61317e-13 0 0)
(2.57777e-12 0 0)
(1.37753e-12 0 0)
(-3.3302e-13 0 0)
(-4.99231e-12 0 0)
(-6.23043e-12 6.73757e-16 -6.73757e-16)
(1.60511e-12 3.37373e-15 -3.37373e-15)
(4.99836e-12 0 0)
(1.30686e-12 -4.2456e-15 4.2456e-15)
(-3.55437e-12 -3.3048e-15 3.3048e-15)
(-2.90101e-12 -4.36309e-15 4.36309e-15)
(4.58091e-13 -8.64219e-16 8.64219e-16)
(1.15363e-12 6.41744e-16 -6.41744e-16)
(4.47174e-13 3.70531e-15 -3.70531e-15)
(3.34229e-13 8.70114e-16 -8.70114e-16)
(-1.07967e-12 0 0)
(-2.43005e-13 0 0)
(-3.00278e-12 0 0)
(-2.54762e-12 -1.75892e-17 1.75892e-17)
(1.17341e-12 -1.93348e-15 1.93348e-15)
(-1.0949e-12 1.89992e-15 -1.89992e-15)
(2.05368e-12 0 0)
(1.55117e-12 -1.89842e-15 1.89842e-15)
(-3.36833e-12 -5.67932e-15 5.67932e-15)
(-2.16972e-12 -6.6771e-15 6.6771e-15)
(-2.47374e-12 -5.41803e-15 5.41803e-15)
(-1.84513e-13 -1.77175e-15 1.77175e-15)
(3.84851e-12 0 0)
(7.11962e-13 0 0)
(4.39019e-12 0 0)
(3.15783e-12 -9.13512e-16 9.13512e-16)
(-2.03602e-12 -3.65323e-15 3.65323e-15)
(-1.4055e-12 -9.13411e-16 9.13411e-16)
(-4.40933e-12 0 0)
)
;

boundaryField
{
    wedge0
    {
        type            wedge;
    }
    wedge1
    {
        type            wedge;
    }
    wedge2
    {
        type            wedge;
    }
    wedge3
    {
        type            wedge;
    }
    outlet
    {
        type            zeroGradient;
    }
    defaultFaces
    {
        type            empty;
    }
}


// ************************************************************************* //
