/*--------------------------------*- C++ -*----------------------------------*\
| =========                 |                                                 |
| \\      /  F ield         | OpenFOAM: The Open Source CFD Toolbox           |
|  \\    /   O peration     | Version:  2312                                  |
|   \\  /    A nd           | Website:  www.openfoam.com                      |
|    \\/     M anipulation  |                                                 |
\*---------------------------------------------------------------------------*/
FoamFile
{
    version     2.0;
    format      ascii;
    arch        "LSB;label=32;scalar=64";
    class       volScalarField;
    location    "0.008";
    object      rho;
}
// * * * * * * * * * * * * * * * * * * * * * * * * * * * * * * * * * * * * * //

dimensions      [1 -3 0 0 0 0 0];

internalField   nonuniform List<scalar> 
100
(
1.16102
1.16102
1.16101
1.16101
1.16099
1.16096
1.1609
1.16078
1.16057
1.16021
1.15962
1.15866
1.15718
1.15498
1.15184
1.14752
1.14179
1.13446
1.12539
1.1145
1.1018
1.08735
1.07128
1.05374
1.03493
1.01504
0.994263
0.972781
0.950764
0.928363
0.90571
0.882924
0.860103
0.837339
0.814689
0.792256
0.77005
0.748066
0.72679
0.704979
0.684999
0.664325
0.643774
0.62591
0.606384
0.58806
0.57081
0.55466
0.539242
0.524521
0.510941
0.4991
0.489555
0.482647
0.477902
0.47385
0.469557
0.466333
0.466504
0.46991
0.472493
0.469962
0.46286
0.456802
0.457651
0.466633
0.478143
0.48227
0.471077
0.443771
0.40621
0.366303
0.330176
0.300783
0.278655
0.263009
0.252543
0.245902
0.241901
0.239614
0.238378
0.237751
0.23746
0.237344
0.237307
0.237285
0.237224
0.237125
0.237148
0.237711
0.239215
0.240691
0.237465
0.221941
0.191905
0.157613
0.133107
0.121656
0.117723
0.116617
)
;

boundaryField
{
    sides
    {
        type            zeroGradient;
    }
    empty
    {
        type            empty;
    }
}


// ************************************************************************* //
