/*--------------------------------*- C++ -*----------------------------------*\
| =========                 |                                                 |
| \\      /  F ield         | OpenFOAM: The Open Source CFD Toolbox           |
|  \\    /   O peration     | Version:  2312                                  |
|   \\  /    A nd           | Website:  www.openfoam.com                      |
|    \\/     M anipulation  |                                                 |
\*---------------------------------------------------------------------------*/
FoamFile
{
    version     2.0;
    format      ascii;
    arch        "LSB;label=32;scalar=64";
    class       volScalarField;
    location    "0.00018";
    object      p;
}
// * * * * * * * * * * * * * * * * * * * * * * * * * * * * * * * * * * * * * //

dimensions      [1 -1 -2 0 0 0 0];

internalField   nonuniform List<scalar> 
500
(
199721
199757
199778
199793
199804
199813
199821
199828
199833
199839
199844
199848
199852
199856
199860
199863
199867
199870
199873
199877
199880
199883
199886
199889
199892
199894
199897
199900
199903
199906
199909
199911
199914
199917
199920
199923
199926
199929
199932
199935
199938
199941
199944
199947
199950
199953
199957
199960
199963
199967
199970
199974
199977
199981
199985
199989
199992
199996
200000
200005
200009
200013
200017
200022
200026
200031
200036
200040
200045
200050
200055
200061
200066
200072
200077
200083
200089
200095
200101
200107
200114
200120
200127
200134
200141
200148
200155
200163
200171
200179
200187
200195
200204
200213
200222
200231
200241
200250
200260
200271
200281
200292
200303
200315
200326
200338
200351
200363
200376
200390
200404
200418
200432
200447
200463
200479
200495
200512
200529
200547
200565
200584
200603
200623
200644
200665
200687
200709
200732
200756
200781
200806
200832
200859
200887
200915
200945
200975
201007
201039
201072
201107
201142
201179
201217
201256
201296
201338
201381
201425
201471
201519
201568
201618
201670
201724
201780
201838
201898
201959
202023
202089
202157
202228
202301
202376
202454
202535
202618
202704
202794
202886
202982
203081
203183
203289
203399
203513
203631
203752
203878
204009
204144
204284
204429
204579
204735
204895
205062
205235
205414
205599
205791
205989
206195
206408
206629
206857
207094
207340
207594
207857
208130
208412
208705
209008
209321
209647
209983
210332
210693
211067
211455
211856
212272
212702
213148
213609
214087
214582
215094
215625
216174
216743
217332
217941
218572
219225
219901
220601
221326
222075
222851
223654
224484
225344
226234
227154
228106
229091
230110
231164
232254
233382
234548
235754
237001
238291
239624
241003
242429
243902
245426
247000
248628
250310
252049
253845
255702
257620
259602
261649
263764
265949
268205
270536
272943
275428
277994
280644
283379
286202
289116
292123
295227
298429
301733
305142
308658
312284
316023
319879
323855
327953
332177
336531
341017
345639
350400
355304
360354
365554
370907
376416
382087
387921
393922
400095
406442
412966
419671
426559
433632
440890
448334
455959
463758
471718
479807
487988
496192
504305
512137
519378
525521
529738
530698
526304
513384
487507
443593
378417
295847
211689
148109
115331
103937
100918
100206
100044
100008
99999.9
99998.1
99997.7
99997.6
99997.6
99997.6
99997.6
99997.6
99997.6
99997.6
99997.6
99997.6
99997.6
99997.6
99997.6
99997.6
99997.6
99997.6
99997.6
99997.6
99997.6
99997.6
99997.6
99997.6
99997.6
99997.6
99997.6
99997.6
99997.6
99997.6
99997.6
99997.6
99997.6
99997.6
99997.6
99997.6
99997.6
99997.6
99997.6
99997.6
99997.6
99997.6
99997.6
99997.6
99997.6
99997.6
99997.6
99997.6
99997.6
99997.6
99997.6
99997.6
99997.6
99997.6
99997.6
99997.6
99997.6
99997.6
99997.6
99997.6
99997.6
99997.6
99997.6
99997.6
99997.6
99997.6
99997.6
99997.6
99997.6
99997.6
99997.6
99997.6
99997.6
99997.6
99997.6
99997.6
99997.6
99997.6
99997.6
99997.6
99997.6
99997.6
99997.6
99997.6
99997.6
99997.6
99997.6
99997.6
99997.6
99997.6
99997.6
99997.6
99997.6
99997.6
99997.6
99997.6
99997.6
99997.6
99997.6
99997.6
99997.6
99997.6
99997.6
99997.6
99997.6
99997.6
99997.6
99997.6
99997.6
99997.6
99997.6
99997.6
99997.6
99997.6
99997.6
99997.6
99997.6
99997.6
99997.6
99997.6
99997.6
99997.6
99997.6
99997.6
99997.6
99997.6
99997.6
99997.6
99997.6
99997.6
99997.6
99997.6
99997.6
99997.6
99997.6
99997.6
99997.6
99997.6
99997.6
99997.6
99997.6
99997.6
99997.6
99997.6
99997.6
99997.6
99997.6
99997.6
99997.6
99997.6
99997.6
99997.6
99997.6
99997.6
99997.6
99997.6
99997.6
99997.6
99997.6
99997.6
99997.6
99997.6
99997.6
99997.6
99997.6
99997.6
99997.6
99997.6
99997.6
)
;

boundaryField
{
    wedge0
    {
        type            wedge;
    }
    wedge1
    {
        type            wedge;
    }
    wedge2
    {
        type            wedge;
    }
    wedge3
    {
        type            wedge;
    }
    outlet
    {
        type            zeroGradient;
    }
    defaultFaces
    {
        type            empty;
    }
}


// ************************************************************************* //
