/*--------------------------------*- C++ -*----------------------------------*\
| =========                 |                                                 |
| \\      /  F ield         | OpenFOAM: The Open Source CFD Toolbox           |
|  \\    /   O peration     | Version:  2312                                  |
|   \\  /    A nd           | Website:  www.openfoam.com                      |
|    \\/     M anipulation  |                                                 |
\*---------------------------------------------------------------------------*/
FoamFile
{
    version     2.0;
    format      ascii;
    arch        "LSB;label=32;scalar=64";
    class       volScalarField;
    location    "0.00018";
    object      rho;
}
// * * * * * * * * * * * * * * * * * * * * * * * * * * * * * * * * * * * * * //

dimensions      [1 -3 0 0 0 0 0];

internalField   nonuniform List<scalar> 
500
(
0.00450843
0.00450991
0.00451208
0.00451505
0.00451887
0.00452357
0.00452917
0.00453567
0.00454308
0.00455141
0.00456066
0.00457085
0.00458197
0.00459404
0.00460707
0.00462105
0.00463601
0.00465194
0.00466886
0.00468678
0.00470571
0.00472566
0.00474664
0.00476866
0.00479174
0.00481589
0.00484113
0.00486746
0.00489492
0.0049235
0.00495323
0.00498413
0.00501622
0.00504951
0.00508402
0.00511978
0.00515681
0.00519513
0.00523477
0.00527574
0.00531808
0.00536181
0.00540695
0.00545355
0.00550162
0.00555119
0.0056023
0.00565499
0.00570927
0.0057652
0.0058228
0.00588212
0.00594319
0.00600605
0.00607075
0.00613732
0.00620581
0.00627627
0.00634875
0.00642329
0.00649995
0.00657877
0.00665982
0.00674315
0.00682881
0.00691687
0.00700739
0.00710044
0.00719607
0.00729437
0.00739539
0.00749922
0.00760592
0.00771559
0.00782829
0.00794411
0.00806315
0.00818548
0.00831121
0.00844042
0.00857322
0.00870971
0.00884999
0.00899417
0.00914238
0.00929471
0.0094513
0.00961227
0.00977775
0.00994788
0.0101228
0.0103026
0.0104875
0.0106776
0.0108731
0.0110742
0.011281
0.0114936
0.0117124
0.0119373
0.0121688
0.0124069
0.0126518
0.0129039
0.0131632
0.01343
0.0137047
0.0139873
0.0142782
0.0145776
0.0148858
0.015203
0.0155297
0.015866
0.0162123
0.0165689
0.0169362
0.0173144
0.0177039
0.0181052
0.0185185
0.0189444
0.0193831
0.0198352
0.0203009
0.0207809
0.0212756
0.0217854
0.0223109
0.0228526
0.0234109
0.0239866
0.02458
0.0251919
0.0258228
0.0264734
0.0271443
0.0278362
0.0285499
0.0292859
0.0300451
0.0308282
0.0316361
0.0324695
0.0333294
0.0342165
0.0351318
0.0360763
0.0370508
0.0380565
0.0390942
0.0401652
0.0412704
0.0424111
0.0435883
0.0448034
0.0460574
0.0473518
0.0486878
0.0500669
0.0514903
0.0529595
0.0544761
0.0560416
0.0576574
0.0593254
0.0610471
0.0628242
0.0646586
0.066552
0.0685064
0.0705236
0.0726056
0.0747544
0.0769722
0.0792611
0.0816232
0.0840609
0.0865765
0.0891723
0.0918507
0.0946143
0.0974657
0.100407
0.103442
0.106573
0.109802
0.113132
0.116568
0.12011
0.123763
0.12753
0.131414
0.135418
0.139546
0.1438
0.148185
0.152705
0.157362
0.162161
0.167105
0.172198
0.177444
0.182847
0.188412
0.194142
0.200042
0.206116
0.212368
0.218802
0.225425
0.232239
0.23925
0.246462
0.253881
0.261511
0.269357
0.277425
0.285719
0.294245
0.303007
0.312012
0.321265
0.330771
0.340536
0.350566
0.360866
0.371443
0.382301
0.393448
0.404889
0.41663
0.428678
0.441039
0.453719
0.466724
0.480062
0.493739
0.507762
0.522137
0.536872
0.551972
0.567446
0.583301
0.599543
0.616179
0.633219
0.650667
0.668534
0.686825
0.705548
0.724713
0.744325
0.764394
0.784927
0.805933
0.827419
0.849394
0.871867
0.894845
0.918338
0.942353
0.9669
0.991987
1.01762
1.04382
1.07058
1.09791
1.12583
1.15435
1.18346
1.21319
1.24353
1.2745
1.30612
1.33837
1.37128
1.40486
1.4391
1.47403
1.50964
1.54595
1.58297
1.6207
1.65914
1.69831
1.73822
1.77886
1.82025
1.8624
1.9053
1.94897
1.99341
2.03863
2.08463
2.13141
2.17897
2.22734
2.27649
2.32644
2.37718
2.42872
2.48105
2.53415
2.58802
2.64261
2.69789
2.75378
2.8101
2.86666
2.92319
2.97918
3.03381
3.08569
3.13261
3.17093
3.19481
3.19497
3.15727
3.06141
2.88266
2.60166
2.22564
1.81438
1.47155
1.27097
1.19156
1.16844
1.16271
1.16139
1.16109
1.16102
1.161
1.161
1.161
1.161
1.161
1.161
1.161
1.161
1.161
1.161
1.161
1.161
1.161
1.161
1.161
1.161
1.161
1.161
1.161
1.161
1.161
1.161
1.161
1.161
1.161
1.161
1.161
1.161
1.161
1.161
1.161
1.161
1.161
1.161
1.161
1.161
1.161
1.161
1.161
1.161
1.161
1.161
1.161
1.161
1.161
1.161
1.161
1.161
1.161
1.161
1.161
1.161
1.161
1.161
1.161
1.161
1.161
1.161
1.161
1.161
1.161
1.161
1.161
1.161
1.161
1.161
1.161
1.161
1.161
1.161
1.161
1.161
1.161
1.161
1.161
1.161
1.161
1.161
1.161
1.161
1.161
1.161
1.161
1.161
1.161
1.161
1.161
1.161
1.161
1.161
1.161
1.161
1.161
1.161
1.161
1.161
1.161
1.161
1.161
1.161
1.161
1.161
1.161
1.161
1.161
1.161
1.161
1.161
1.161
1.161
1.161
1.161
1.161
1.161
1.161
1.161
1.161
1.161
1.161
1.161
1.161
1.161
1.161
1.161
1.161
1.161
1.161
1.161
1.161
1.161
1.161
1.161
1.161
1.161
1.161
1.161
1.161
1.161
1.161
1.161
1.161
1.161
1.161
1.161
1.161
1.161
1.161
1.161
1.161
1.161
1.161
1.161
1.161
1.161
1.161
1.161
1.161
1.161
1.161
1.161
1.161
1.161
1.161
1.161
1.161
1.161
1.161
1.161
)
;

boundaryField
{
    wedge0
    {
        type            wedge;
    }
    wedge1
    {
        type            wedge;
    }
    wedge2
    {
        type            wedge;
    }
    wedge3
    {
        type            wedge;
    }
    outlet
    {
        type            zeroGradient;
    }
    defaultFaces
    {
        type            empty;
    }
}


// ************************************************************************* //
