/*--------------------------------*- C++ -*----------------------------------*\
| =========                 |                                                 |
| \\      /  F ield         | OpenFOAM: The Open Source CFD Toolbox           |
|  \\    /   O peration     | Version:  2312                                  |
|   \\  /    A nd           | Website:  www.openfoam.com                      |
|    \\/     M anipulation  |                                                 |
\*---------------------------------------------------------------------------*/
FoamFile
{
    version     2.0;
    format      ascii;
    arch        "LSB;label=32;scalar=64";
    class       volScalarField;
    location    "0.00018";
    object      T;
}
// * * * * * * * * * * * * * * * * * * * * * * * * * * * * * * * * * * * * * //

dimensions      [0 0 0 1 0 0 0];

internalField   nonuniform List<scalar> 
500
(
154299
154276
154218
154128
154007
153853
153669
153454
153208
152932
152625
152288
151922
151526
151100
150646
150162
149650
149110
148543
147947
147325
146676
146001
145300
144573
143822
143045
142245
141421
140575
139705
138813
137900
136966
136011
135037
134042
133030
131998
130949
129884
128801
127703
126589
125460
124318
123162
121993
120811
119618
118414
117199
115975
114741
113499
112248
110990
109725
108454
107177
105895
104609
103319
102025
100728
99429.4
98128.8
96827.1
95524.7
94222.2
92920.2
91619
90319.3
89021.4
87726
86433.5
85144.3
83858.8
82577.6
81301.1
80029.7
78763.8
77503.8
76250.1
75003.1
73763.2
72530.7
71305.9
70089.3
68881.1
67681.6
66491.2
65310.2
64138.7
62977.2
61825.8
60684.9
59554.5
58435.1
57326.7
56229.6
55144
54070
53007.9
51957.8
50919.8
49894.1
48880.8
47880.1
46892
45916.6
44954.1
44004.4
43067.8
42144.2
41233.7
40336.4
39452.2
38581.3
37723.5
36879
36047.8
35229.8
34425
33633.4
32854.9
32089.7
31337.5
30598.3
29872.2
29159
28458.7
27771.2
27096.4
26434.3
25784.7
25147.6
24522.8
23910.3
23310
22721.8
22145.4
21580.9
21028.1
20486.9
19957.2
19438.7
18931.5
18435.3
17950
17475.5
17011.6
16558.2
16115.2
15682.4
15259.6
14846.7
14443.6
14050
13665.9
13291.2
12925.5
12568.8
12221
11881.8
11551.2
11228.9
10914.8
10608.8
10310.7
10020.3
9737.59
9462.29
9194.29
8933.44
8679.59
8432.6
8192.32
7958.6
7731.3
7510.28
7295.4
7086.52
6883.5
6686.2
6494.5
6308.25
6127.34
5951.62
5780.98
5615.28
5454.41
5298.25
5146.67
4999.55
4856.79
4718.27
4583.87
4453.5
4327.03
4204.37
4085.42
3970.07
3858.22
3749.78
3644.66
3542.75
3443.98
3348.24
3255.46
3165.55
3078.43
2994.01
2912.23
2832.99
2756.23
2681.87
2609.85
2540.09
2472.52
2407.08
2343.71
2282.34
2222.92
2165.38
2109.66
2055.72
2003.49
1952.92
1903.97
1856.58
1810.7
1766.3
1723.31
1681.7
1641.43
1602.46
1564.73
1528.22
1492.89
1458.7
1425.62
1393.6
1362.62
1332.65
1303.65
1275.59
1248.45
1222.2
1196.8
1172.23
1148.47
1125.5
1103.28
1081.79
1061.02
1040.94
1021.52
1002.76
984.621
967.096
950.163
933.805
918.004
902.744
888.01
873.785
860.054
846.805
834.022
821.692
809.803
798.342
787.297
776.656
766.408
756.542
747.048
737.916
729.136
720.698
712.593
704.814
697.35
690.194
683.338
676.775
670.496
664.494
658.763
653.295
648.084
643.123
638.407
633.929
629.684
625.664
621.866
618.282
614.908
611.737
608.765
605.985
603.391
600.975
598.73
596.645
594.715
592.92
591.23
589.603
587.98
586.267
584.316
581.886
578.584
573.765
566.362
554.656
535.989
506.622
462.994
406.382
350.568
316.064
303.823
300.835
300.183
300.04
300.009
300.002
300
300
300
300
300
300
300
300
300
300
300
300
300
300
300
300
300
300
300
300
300
300
300
300
300
300
300
300
300
300
300
300
300
300
300
300
300
300
300
300
300
300
300
300
300
300
300
300
300
300
300
300
300
300
300
300
300
300
300
300
300
300
300
300
300
300
300
300
300
300
300
300
300
300
300
300
300
300
300
300
300
300
300
300
300
300
300
300
300
300
300
300
300
300
300
300
300
300
300
300
300
300
300
300
300
300
300
300
300
300
300
300
300
300
300
300
300
300
300
300
300
300
300
300
300
300
300
300
300
300
300
300
300
300
300
300
300
300
300
300
300
300
300
300
300
300
300
300
300
300
300
300
300
300
300
300
300
300
300
300
300
300
300
300
300
300
300
300
)
;

boundaryField
{
    wedge0
    {
        type            wedge;
    }
    wedge1
    {
        type            wedge;
    }
    wedge2
    {
        type            wedge;
    }
    wedge3
    {
        type            wedge;
    }
    outlet
    {
        type            zeroGradient;
    }
    defaultFaces
    {
        type            empty;
    }
}


// ************************************************************************* //
