/*--------------------------------*- C++ -*----------------------------------*\
| =========                 |                                                 |
| \\      /  F ield         | OpenFOAM: The Open Source CFD Toolbox           |
|  \\    /   O peration     | Version:  2312                                  |
|   \\  /    A nd           | Website:  www.openfoam.com                      |
|    \\/     M anipulation  |                                                 |
\*---------------------------------------------------------------------------*/
FoamFile
{
    version     2.0;
    format      ascii;
    arch        "LSB;label=32;scalar=64";
    class       volScalarField;
    location    "0.00018";
    object      thermo:e;
}
// * * * * * * * * * * * * * * * * * * * * * * * * * * * * * * * * * * * * * //

dimensions      [0 2 -2 0 0 0 0];

internalField   nonuniform List<scalar> 
500
(
1.1074e+08
1.10724e+08
1.10682e+08
1.10618e+08
1.1053e+08
1.10421e+08
1.10288e+08
1.10134e+08
1.09958e+08
1.09759e+08
1.09539e+08
1.09297e+08
1.09034e+08
1.0875e+08
1.08445e+08
1.08118e+08
1.07771e+08
1.07404e+08
1.07017e+08
1.06609e+08
1.06182e+08
1.05735e+08
1.0527e+08
1.04785e+08
1.04282e+08
1.0376e+08
1.03221e+08
1.02664e+08
1.02089e+08
1.01498e+08
1.0089e+08
1.00266e+08
9.96264e+07
9.8971e+07
9.83005e+07
9.76153e+07
9.69157e+07
9.62023e+07
9.54753e+07
9.47352e+07
9.39824e+07
9.32174e+07
9.24405e+07
9.16522e+07
9.08528e+07
9.00429e+07
8.92229e+07
8.83931e+07
8.75541e+07
8.67062e+07
8.585e+07
8.49857e+07
8.4114e+07
8.32352e+07
8.23497e+07
8.1458e+07
8.05605e+07
7.96576e+07
7.87498e+07
7.78375e+07
7.69212e+07
7.60011e+07
7.50779e+07
7.41518e+07
7.32232e+07
7.22927e+07
7.13605e+07
7.04271e+07
6.94928e+07
6.85581e+07
6.76233e+07
6.66888e+07
6.5755e+07
6.48221e+07
6.38907e+07
6.2961e+07
6.20333e+07
6.1108e+07
6.01855e+07
5.9266e+07
5.83498e+07
5.74373e+07
5.65288e+07
5.56245e+07
5.47247e+07
5.38298e+07
5.29398e+07
5.20553e+07
5.11763e+07
5.03031e+07
4.9436e+07
4.85751e+07
4.77208e+07
4.68731e+07
4.60324e+07
4.51987e+07
4.43724e+07
4.35535e+07
4.27423e+07
4.19388e+07
4.11434e+07
4.0356e+07
3.95768e+07
3.88061e+07
3.80438e+07
3.72901e+07
3.65451e+07
3.5809e+07
3.50818e+07
3.43635e+07
3.36544e+07
3.29543e+07
3.22635e+07
3.1582e+07
3.09098e+07
3.02469e+07
2.95935e+07
2.89494e+07
2.83149e+07
2.76898e+07
2.70742e+07
2.64681e+07
2.58715e+07
2.52844e+07
2.47068e+07
2.41387e+07
2.358e+07
2.30307e+07
2.24909e+07
2.19604e+07
2.14393e+07
2.09274e+07
2.04248e+07
1.99314e+07
1.94471e+07
1.89719e+07
1.85057e+07
1.80484e+07
1.76e+07
1.71604e+07
1.67296e+07
1.63074e+07
1.58938e+07
1.54886e+07
1.50919e+07
1.47035e+07
1.43233e+07
1.39512e+07
1.35871e+07
1.3231e+07
1.28827e+07
1.25422e+07
1.22092e+07
1.18839e+07
1.15659e+07
1.12552e+07
1.09518e+07
1.06555e+07
1.03662e+07
1.00837e+07
9.80805e+06
9.53906e+06
9.27663e+06
9.02064e+06
8.77099e+06
8.52757e+06
8.29026e+06
8.05896e+06
7.83355e+06
7.61393e+06
7.39998e+06
7.1916e+06
6.98867e+06
6.79108e+06
6.59874e+06
6.41153e+06
6.22935e+06
6.05208e+06
5.87963e+06
5.71189e+06
5.54876e+06
5.39013e+06
5.23591e+06
5.08599e+06
4.94029e+06
4.79869e+06
4.6611e+06
4.52743e+06
4.39759e+06
4.27148e+06
4.14901e+06
4.03009e+06
3.91463e+06
3.80255e+06
3.69376e+06
3.58818e+06
3.48572e+06
3.3863e+06
3.28985e+06
3.19627e+06
3.10551e+06
3.01748e+06
2.93211e+06
2.84932e+06
2.76905e+06
2.69122e+06
2.61577e+06
2.54263e+06
2.47174e+06
2.40303e+06
2.33645e+06
2.27192e+06
2.20939e+06
2.1488e+06
2.09011e+06
2.03324e+06
1.97815e+06
1.92478e+06
1.87309e+06
1.82302e+06
1.77453e+06
1.72756e+06
1.68208e+06
1.63804e+06
1.59539e+06
1.55409e+06
1.5141e+06
1.47539e+06
1.4379e+06
1.40161e+06
1.36648e+06
1.33247e+06
1.29954e+06
1.26767e+06
1.23682e+06
1.20696e+06
1.17806e+06
1.15008e+06
1.12301e+06
1.09681e+06
1.07145e+06
1.04691e+06
1.02316e+06
1.00019e+06
977954
956442
935629
915493
896014
877170
858942
841312
824260
807769
791822
776402
761493
747079
733146
719678
706662
694085
681932
670192
658851
647900
637324
627115
617261
607752
598578
589729
581196
572970
565043
557406
550051
542970
536157
529602
523301
517245
511428
505845
500488
495352
490432
485721
481215
476907
472794
468870
465130
461570
458185
454971
451924
449039
446313
443741
441319
439044
436911
434915
433053
431320
429708
428212
426827
425539
424326
423158
421993
420764
419364
417620
415250
411791
406478
398077
384679
363602
332291
291660
251602
226839
218054
215909
215441
215339
215316
215311
215310
215310
215310
215310
215310
215310
215310
215310
215310
215310
215310
215310
215310
215310
215310
215310
215310
215310
215310
215310
215310
215310
215310
215310
215310
215310
215310
215310
215310
215310
215310
215310
215310
215310
215310
215310
215310
215310
215310
215310
215310
215310
215310
215310
215310
215310
215310
215310
215310
215310
215310
215310
215310
215310
215310
215310
215310
215310
215310
215310
215310
215310
215310
215310
215310
215310
215310
215310
215310
215310
215310
215310
215310
215310
215310
215310
215310
215310
215310
215310
215310
215310
215310
215310
215310
215310
215310
215310
215310
215310
215310
215310
215310
215310
215310
215310
215310
215310
215310
215310
215310
215310
215310
215310
215310
215310
215310
215310
215310
215310
215310
215310
215310
215310
215310
215310
215310
215310
215310
215310
215310
215310
215310
215310
215310
215310
215310
215310
215310
215310
215310
215310
215310
215310
215310
215310
215310
215310
215310
215310
215310
215310
215310
215310
215310
215310
215310
215310
215310
215310
215310
215310
215310
215310
215310
215310
215310
215310
215310
215310
215310
215310
215310
215310
215310
215310
215310
215310
)
;

boundaryField
{
    wedge0
    {
        type            wedge;
    }
    wedge1
    {
        type            wedge;
    }
    wedge2
    {
        type            wedge;
    }
    wedge3
    {
        type            wedge;
    }
    outlet
    {
        type            zeroGradient;
    }
    defaultFaces
    {
        type            empty;
    }
}


// ************************************************************************* //
