/*--------------------------------*- C++ -*----------------------------------*\
| =========                 |                                                 |
| \\      /  F ield         | OpenFOAM: The Open Source CFD Toolbox           |
|  \\    /   O peration     | Version:  2312                                  |
|   \\  /    A nd           | Website:  www.openfoam.com                      |
|    \\/     M anipulation  |                                                 |
\*---------------------------------------------------------------------------*/
FoamFile
{
    version     2.0;
    format      ascii;
    arch        "LSB;label=32;scalar=64";
    class       volVectorField;
    location    "0.00018";
    object      U;
}
// * * * * * * * * * * * * * * * * * * * * * * * * * * * * * * * * * * * * * //

dimensions      [0 1 -1 0 0 0 0];

internalField   nonuniform List<vector> 
500
(
(1.24185 -3.44452e-10 3.44272e-10)
(2.23587 -3.3548e-10 3.35631e-10)
(3.3446 -3.4355e-10 3.43582e-10)
(4.52221 -3.3924e-10 3.39628e-10)
(5.72731 -3.22262e-10 3.22339e-10)
(6.9457 -3.17901e-10 3.17948e-10)
(8.17147 -3.12436e-10 3.12468e-10)
(9.40175 -3.06535e-10 3.06532e-10)
(10.635 -2.94654e-10 2.94641e-10)
(11.8703 -2.79248e-10 2.79238e-10)
(13.107 -2.64454e-10 2.64439e-10)
(14.3449 -2.50625e-10 2.50617e-10)
(15.5836 -2.37225e-10 2.37224e-10)
(16.823 -2.23953e-10 2.23957e-10)
(18.0629 -2.10987e-10 2.10998e-10)
(19.3032 -1.98361e-10 1.98385e-10)
(20.5439 -1.86756e-10 1.86754e-10)
(21.7849 -1.79796e-10 1.79788e-10)
(23.0261 -1.74578e-10 1.74565e-10)
(24.2676 -1.71699e-10 1.71687e-10)
(25.5093 -1.68426e-10 1.68422e-10)
(26.7511 -1.66883e-10 1.66886e-10)
(27.9931 -1.64255e-10 1.64263e-10)
(29.2352 -1.63113e-10 1.63115e-10)
(30.4774 -1.60107e-10 1.60098e-10)
(31.7198 -1.56407e-10 1.56402e-10)
(32.9622 -1.53743e-10 1.5374e-10)
(34.2048 -1.5051e-10 1.50511e-10)
(35.4474 -1.45177e-10 1.45177e-10)
(36.6901 -1.405e-10 1.40503e-10)
(37.9329 -1.35511e-10 1.35514e-10)
(39.1758 -1.31175e-10 1.31177e-10)
(40.4187 -1.25385e-10 1.25387e-10)
(41.6617 -1.19429e-10 1.19425e-10)
(42.9047 -1.14048e-10 1.14042e-10)
(44.1479 -1.08547e-10 1.08541e-10)
(45.391 -1.03853e-10 1.03854e-10)
(46.6343 -9.91767e-11 9.91767e-11)
(47.8776 -9.50173e-11 9.50173e-11)
(49.1209 -9.08673e-11 9.08673e-11)
(50.3643 -8.62053e-11 8.62053e-11)
(51.6077 -8.08475e-11 8.08475e-11)
(52.8512 -7.57362e-11 7.57362e-11)
(54.0948 -7.02566e-11 7.02566e-11)
(55.3384 -6.47657e-11 6.47657e-11)
(56.582 -5.95343e-11 5.95343e-11)
(57.8257 -5.39687e-11 5.39687e-11)
(59.0695 -4.84203e-11 4.84203e-11)
(60.3133 -4.26265e-11 4.26265e-11)
(61.5572 -3.7531e-11 3.7531e-11)
(62.8011 -3.27359e-11 3.27359e-11)
(64.045 -2.79166e-11 2.79166e-11)
(65.289 -2.36909e-11 2.36909e-11)
(66.5331 -1.9238e-11 1.9238e-11)
(67.7772 -1.50579e-11 1.50579e-11)
(69.0214 -1.10753e-11 1.10753e-11)
(70.2656 -7.42936e-12 7.42936e-12)
(71.5099 -4.24209e-12 4.24209e-12)
(72.7543 -1.46623e-12 1.46623e-12)
(73.9987 9.45685e-13 -9.45685e-13)
(75.2432 2.48332e-12 -2.48332e-12)
(76.4877 3.68854e-12 -3.68854e-12)
(77.7323 4.59412e-12 -4.59412e-12)
(78.9769 5.21471e-12 -5.21471e-12)
(80.2216 5.56964e-12 -5.56964e-12)
(81.4664 5.67705e-12 -5.67705e-12)
(82.7112 5.90268e-12 -5.90268e-12)
(83.9561 6.35462e-12 -6.35462e-12)
(85.2011 6.14196e-12 -6.14196e-12)
(86.4462 5.93883e-12 -5.93883e-12)
(87.6913 5.74791e-12 -5.74791e-12)
(88.9365 5.56693e-12 -5.56693e-12)
(90.1818 5.3731e-12 -5.3731e-12)
(91.4271 5.19044e-12 -5.19044e-12)
(92.6725 5.23201e-12 -5.23208e-12)
(93.918 5.2864e-12 -5.28688e-12)
(95.1636 5.00938e-12 -5.00766e-12)
(96.4093 4.5782e-12 -4.57816e-12)
(97.6551 4.36172e-12 -4.36203e-12)
(98.9009 4.14872e-12 -4.14596e-12)
(100.147 4.01693e-12 -3.97114e-12)
(101.393 3.61674e-12 -3.52097e-12)
(102.639 2.9604e-12 -2.81018e-12)
(103.885 2.04865e-12 -1.84281e-12)
(105.132 8.96433e-13 -6.33942e-13)
(106.378 -3.59937e-13 5.55662e-13)
(107.625 -1.35901e-12 1.48976e-12)
(108.871 -2.15376e-12 2.25709e-12)
(110.118 -2.71642e-12 2.79207e-12)
(111.365 -3.07977e-12 3.11836e-12)
(112.612 -3.24586e-12 3.23492e-12)
(113.859 -3.2074e-12 3.14713e-12)
(115.106 -3.1422e-12 3.15773e-12)
(116.354 -2.94743e-12 2.97925e-12)
(117.601 -2.56864e-12 2.61423e-12)
(118.849 -2.11199e-12 2.07201e-12)
(120.097 -1.82353e-12 1.65927e-12)
(121.345 -1.423e-12 1.42065e-12)
(122.593 -1.04058e-12 1.05406e-12)
(123.841 -6.63589e-13 6.95903e-13)
(125.089 -4.43961e-13 4.95268e-13)
(126.338 -3.03956e-13 3.69774e-13)
(127.587 -8.33478e-14 9.48724e-14)
(128.836 1.6158e-13 -1.91262e-13)
(130.085 5.47672e-13 -6.20396e-13)
(131.334 1.07466e-12 -1.13976e-12)
(132.583 1.47329e-12 -1.53027e-12)
(133.833 2.0094e-12 -2.05761e-12)
(135.083 2.43004e-12 -2.47013e-12)
(136.333 2.9819e-12 -3.01294e-12)
(137.583 3.55165e-12 -3.56681e-12)
(138.834 4.02036e-12 -4.02032e-12)
(140.084 4.02998e-12 -4.03035e-12)
(141.335 4.15868e-12 -4.1596e-12)
(142.586 4.40643e-12 -4.40707e-12)
(143.838 4.36197e-12 -4.36254e-12)
(145.089 4.02945e-12 -4.02986e-12)
(146.341 3.79814e-12 -3.79834e-12)
(147.594 3.66646e-12 -3.66669e-12)
(148.846 3.45169e-12 -3.45209e-12)
(150.099 3.51133e-12 -3.51151e-12)
(151.352 3.50313e-12 -3.50274e-12)
(152.605 3.2492e-12 -3.24847e-12)
(153.859 2.96357e-12 -2.96271e-12)
(155.113 2.72266e-12 -2.72225e-12)
(156.367 2.50898e-12 -2.50839e-12)
(157.622 2.21984e-12 -2.21906e-12)
(158.877 1.85335e-12 -1.85279e-12)
(160.132 1.44276e-12 -1.44252e-12)
(161.388 1.03581e-12 -1.03547e-12)
(162.644 6.82174e-13 -6.81694e-13)
(163.901 3.80639e-13 -3.80108e-13)
(165.158 1.30235e-13 -1.29653e-13)
(166.415 -6.97951e-14 7.00761e-14)
(167.673 -2.21171e-13 2.21164e-13)
(168.931 -1.99656e-13 1.99654e-13)
(170.19 -1.0278e-13 1.02779e-13)
(171.45 -1.73105e-13 1.73105e-13)
(172.709 -1.93421e-13 1.93421e-13)
(173.97 -1.92626e-13 1.92626e-13)
(175.231 -1.92103e-13 1.92103e-13)
(176.492 -1.90602e-13 1.90602e-13)
(177.754 -2.35939e-13 2.35939e-13)
(179.017 -1.87341e-13 1.87341e-13)
(180.28 -1.86337e-13 1.86337e-13)
(181.544 -1.53602e-13 1.53602e-13)
(182.809 -2.10154e-13 2.10154e-13)
(184.074 -1.8399e-13 1.8399e-13)
(185.34 -1.76381e-13 1.76376e-13)
(186.607 -8.53554e-14 8.53267e-14)
(187.874 -6.89195e-14 6.91746e-14)
(189.143 -9.93496e-14 9.95939e-14)
(190.412 -5.60387e-14 5.62725e-14)
(191.682 -5.26782e-14 5.29017e-14)
(192.952 -1.23741e-13 1.23952e-13)
(194.224 -1.30798e-13 1.30996e-13)
(195.497 -1.69201e-13 1.69456e-13)
(196.771 -2.02632e-13 2.02804e-13)
(198.045 -1.74646e-13 1.74709e-13)
(199.321 -2.31389e-13 2.31417e-13)
(200.598 -2.3298e-13 2.32996e-13)
(201.876 -1.74994e-13 1.75054e-13)
(203.155 -1.71792e-13 1.7174e-13)
(204.435 -2.59569e-13 2.59558e-13)
(205.717 -1.89301e-13 1.89187e-13)
(207 -1.67172e-13 1.67128e-13)
(208.284 -1.66817e-13 1.66761e-13)
(209.569 -1.4735e-13 1.47272e-13)
(210.856 -1.78435e-13 1.78362e-13)
(212.145 -2.67066e-13 2.67072e-13)
(213.435 -3.92468e-13 3.92373e-13)
(214.726 -5.91055e-13 5.90869e-13)
(216.02 -6.87506e-13 6.87271e-13)
(217.315 -7.61872e-13 7.6161e-13)
(218.611 -8.12621e-13 8.12348e-13)
(219.91 -8.37239e-13 8.37005e-13)
(221.211 -8.32591e-13 8.3243e-13)
(222.513 -7.94402e-13 7.94337e-13)
(223.818 -7.16524e-13 7.16532e-13)
(225.124 -5.78659e-13 5.78756e-13)
(226.433 -4.57414e-13 4.57434e-13)
(227.744 -3.52761e-13 3.52905e-13)
(229.058 -2.66188e-13 2.66292e-13)
(230.374 -1.99132e-13 1.99188e-13)
(231.692 -1.5412e-13 1.54133e-13)
(233.013 -1.31048e-13 1.30993e-13)
(234.337 -6.98735e-14 6.97576e-14)
(235.664 -2.68026e-14 2.66156e-14)
(236.993 0 0)
(238.326 1.82157e-14 -1.82157e-14)
(239.662 4.76544e-14 -4.76544e-14)
(241.001 5.60066e-14 -5.60066e-14)
(242.343 3.80649e-14 -3.80649e-14)
(243.689 1.89282e-14 -1.89282e-14)
(245.039 2.25847e-14 -2.25847e-14)
(246.392 0 0)
(247.749 -2.50834e-14 2.5127e-14)
(249.11 -3.26758e-14 3.28031e-14)
(250.476 -1.74338e-14 1.77213e-14)
(251.845 2.40195e-14 -2.37461e-14)
(253.22 5.66099e-14 -5.63511e-14)
(254.598 7.84712e-14 -7.8211e-14)
(255.982 8.80168e-14 -8.77794e-14)
(257.371 7.98424e-14 -7.96295e-14)
(258.764 5.41083e-14 -5.38974e-14)
(260.163 4.08513e-14 -4.06422e-14)
(261.568 4.48278e-14 -4.46577e-14)
(262.978 2.98613e-14 -2.96593e-14)
(264.394 2.9831e-14 -2.96454e-14)
(265.816 9.51054e-15 -9.36527e-15)
(267.245 -2.40952e-15 2.57498e-15)
(268.68 -1.27046e-14 1.27754e-14)
(270.122 -4.19229e-14 4.19872e-14)
(271.571 -6.89236e-14 6.89738e-14)
(273.027 -9.76046e-14 9.76548e-14)
(274.49 -1.27096e-13 1.27138e-13)
(275.961 -1.22841e-13 1.22892e-13)
(277.44 -1.01712e-13 1.01748e-13)
(278.928 -8.61634e-14 8.61949e-14)
(280.424 -8.05229e-14 8.05261e-14)
(281.929 -8.11469e-14 8.11485e-14)
(283.442 -8.03774e-14 8.03823e-14)
(284.966 -8.01953e-14 8.0187e-14)
(286.499 -6.67925e-14 6.67925e-14)
(288.041 -3.96639e-14 3.96639e-14)
(289.595 -3.99176e-14 3.99176e-14)
(291.158 -4.63205e-14 4.63205e-14)
(292.733 -7.47257e-14 7.47257e-14)
(294.319 -8.52838e-14 8.52838e-14)
(295.917 -9.37432e-14 9.37432e-14)
(297.527 -1.16665e-13 1.16665e-13)
(299.149 -1.22858e-13 1.22858e-13)
(300.784 -1.27231e-13 1.27231e-13)
(302.433 -1.28087e-13 1.28087e-13)
(304.094 -1.32396e-13 1.32396e-13)
(305.77 -1.34581e-13 1.34581e-13)
(307.46 -1.32647e-13 1.32647e-13)
(309.165 -1.3097e-13 1.3097e-13)
(310.885 -1.22173e-13 1.22173e-13)
(312.621 -1.2099e-13 1.2099e-13)
(314.373 -1.37311e-13 1.37311e-13)
(316.141 -1.44181e-13 1.44181e-13)
(317.926 -1.55646e-13 1.55646e-13)
(319.729 -1.3077e-13 1.3077e-13)
(321.549 -1.1431e-13 1.1431e-13)
(323.388 -1.05678e-13 1.05678e-13)
(325.246 -1.14569e-13 1.14569e-13)
(327.123 -1.18432e-13 1.18432e-13)
(329.02 -1.13208e-13 1.13208e-13)
(330.937 -1.29973e-13 1.29973e-13)
(332.875 -1.29698e-13 1.29698e-13)
(334.834 -1.16086e-13 1.16086e-13)
(336.815 -1.01342e-13 1.01342e-13)
(338.818 -8.93792e-14 8.93792e-14)
(340.844 -7.66949e-14 7.66949e-14)
(342.894 -6.70728e-14 6.70728e-14)
(344.967 -6.29345e-14 6.29345e-14)
(347.064 -7.67899e-14 7.67899e-14)
(349.186 -6.58441e-14 6.58441e-14)
(351.334 -5.57597e-14 5.57597e-14)
(353.507 -4.63713e-14 4.63713e-14)
(355.707 -3.75702e-14 3.75702e-14)
(357.933 -2.90753e-14 2.90753e-14)
(360.187 -1.95768e-14 1.95768e-14)
(362.468 -1.46982e-15 1.46982e-15)
(364.777 5.3423e-15 -5.3423e-15)
(367.116 2.09596e-14 -2.09596e-14)
(369.483 2.47377e-14 -2.47377e-14)
(371.88 2.83723e-14 -2.83723e-14)
(374.307 2.85762e-14 -2.85762e-14)
(376.764 2.31547e-14 -2.31547e-14)
(379.252 1.80688e-14 -1.80688e-14)
(381.771 1.32954e-14 -1.32954e-14)
(384.322 8.7968e-15 -8.7968e-15)
(386.904 4.09293e-15 -4.09293e-15)
(389.519 -7.68205e-15 7.68205e-15)
(392.166 -9.61017e-15 9.61017e-15)
(394.846 -5.72765e-15 5.72765e-15)
(397.559 -2.19131e-15 2.19131e-15)
(400.306 0 3.03429e-34)
(403.085 0 4.72159e-35)
(405.899 7.06841e-16 -7.06841e-16)
(408.746 9.91999e-15 -9.91999e-15)
(411.628 1.07591e-14 -1.07591e-14)
(414.544 1.62539e-15 -1.62539e-15)
(417.493 -8.0348e-17 8.0348e-17)
(420.477 0 3.59169e-35)
(423.496 0 0)
(426.548 -7.65989e-15 7.65989e-15)
(429.635 -8.43707e-15 8.43707e-15)
(432.755 -5.52052e-15 5.52052e-15)
(435.91 1.04093e-15 -1.04093e-15)
(439.098 -5.51125e-15 5.51125e-15)
(442.32 -2.9916e-15 2.9916e-15)
(445.575 -5.58077e-16 5.58077e-16)
(448.864 3.30443e-15 -3.30443e-15)
(452.184 -7.23508e-16 7.23508e-16)
(455.537 0 2.0041e-35)
(458.922 0 0)
(462.337 0 1.76099e-35)
(465.783 -3.39014e-15 3.39014e-15)
(469.256 3.04964e-17 -3.04964e-17)
(472.757 -3.25663e-15 3.25663e-15)
(476.281 -2.7571e-15 2.7571e-15)
(479.826 9.83747e-16 -9.83747e-16)
(483.386 1.19612e-16 -1.19612e-16)
(486.953 0 1.07759e-35)
(490.515 0 0)
(494.055 -3.31954e-15 3.31954e-15)
(497.544 -6.27277e-15 6.27277e-15)
(500.931 -5.13224e-15 5.13224e-15)
(504.144 -4.1215e-15 4.1215e-15)
(507.064 -2.91518e-15 2.91518e-15)
(509.499 -1.464e-15 1.464e-15)
(511.142 1.0741e-15 -1.0741e-15)
(511.493 0 2.21562e-35)
(509.735 -1.64606e-18 1.64606e-18)
(504.545 -1.52332e-16 1.52332e-16)
(493.784 -1.96692e-15 1.96692e-15)
(474.086 -5.49186e-15 5.49186e-15)
(440.439 -1.06751e-14 1.06751e-14)
(386.333 -1.67534e-14 1.67534e-14)
(306.352 -1.85531e-14 1.85531e-14)
(203.974 -2.14664e-14 2.14664e-14)
(102.604 -1.9191e-14 1.9191e-14)
(36.2268 -1.0797e-14 1.0797e-14)
(9.67617 -4.3068e-15 4.3068e-15)
(2.28151 0 0)
(0.517349 2.08581e-15 -2.08581e-15)
(0.11576 0 0)
(0.0257175 0 0)
(0.00568094 0 0)
(0.00124822 0 0)
(0.000272829 -4.06327e-15 4.06327e-15)
(5.93261e-05 -4.05369e-15 4.05369e-15)
(1.28346e-05 -1.27789e-17 1.27789e-17)
(2.76257e-06 0 0)
(5.91641e-07 0 0)
(1.26069e-07 0 0)
(2.67213e-08 0 0)
(5.62672e-09 0 0)
(1.17391e-09 -1.93856e-15 1.93856e-15)
(2.40714e-10 0 0)
(4.35258e-11 0 0)
(2.91554e-12 1.90635e-15 -1.90635e-15)
(1.07904e-11 2.80426e-18 -2.80426e-18)
(1.76907e-11 1.88462e-15 -1.88462e-15)
(4.34981e-12 0 0)
(-8.87066e-12 -3.09659e-15 3.09659e-15)
(-1.22648e-11 -2.46339e-15 2.46339e-15)
(-6.94227e-12 -5.52178e-15 5.52178e-15)
(-6.81469e-13 -4.89521e-15 4.89521e-15)
(7.87734e-12 -6.20708e-16 6.20708e-16)
(1.00664e-11 0 0)
(6.6345e-12 0 0)
(-1.60266e-12 1.7871e-15 -1.7871e-15)
(-1.22053e-11 0 0)
(-1.37007e-11 -4.24301e-15 4.24301e-15)
(-6.63264e-12 -4.93484e-15 4.93484e-15)
(-4.36611e-12 -2.11276e-15 2.11276e-15)
(-1.05855e-11 -2.793e-15 2.793e-15)
(-1.45411e-11 0 0)
(-9.15671e-12 0 0)
(9.53474e-12 -1.71035e-15 1.71035e-15)
(1.08716e-11 2.24225e-18 -2.24225e-18)
(1.10054e-11 -1.69174e-15 1.69174e-15)
(1.76001e-11 0 0)
(-1.17467e-12 1.67419e-15 -1.67419e-15)
(-2.4668e-11 0 0)
(-2.24544e-11 0 0)
(-1.29913e-11 -7.97322e-16 7.97322e-16)
(-1.86747e-11 -4.87496e-15 4.87496e-15)
(-1.98236e-11 -5.66711e-15 5.66711e-15)
(-1.93065e-11 -9.70044e-15 9.70044e-15)
(-1.75632e-11 -1.048e-14 1.048e-14)
(-2.42876e-11 -8.03864e-15 8.03864e-15)
(-3.09184e-11 -2.41559e-15 2.41559e-15)
(-2.22564e-11 0 0)
(-7.60073e-12 0 0)
(3.56339e-12 1.57124e-15 -1.57124e-15)
(-3.38445e-12 2.71733e-18 -2.71733e-18)
(-2.07766e-11 1.55471e-15 -1.55471e-15)
(-2.38601e-11 0 0)
(-1.18086e-11 0 0)
(-4.54793e-12 -1.52914e-15 1.52914e-15)
(-1.638e-11 0 0)
(-2.2709e-11 0 0)
(-7.05658e-12 0 0)
(5.65157e-12 2.99666e-15 -2.99666e-15)
(7.12706e-12 2.98911e-15 -2.98911e-15)
(7.85006e-12 8.73602e-18 -8.73602e-18)
(1.82366e-11 0 0)
(1.33523e-11 0 0)
(-3.11957e-13 1.45877e-15 -1.45877e-15)
(-9.5565e-13 0 0)
(1.22172e-11 0 0)
(2.39329e-11 0 0)
(2.77323e-11 0 0)
(2.51132e-11 0 0)
(1.64976e-11 0 0)
(7.24717e-12 0 0)
(7.00306e-13 0 0)
(3.46449e-12 5.97559e-16 -5.97559e-16)
(3.07584e-11 3.97407e-15 -3.97407e-15)
(4.30823e-11 1.01029e-14 -1.01029e-14)
(2.14581e-11 1.34448e-14 -1.34448e-14)
(8.10478e-12 1.4026e-14 -1.4026e-14)
(4.48421e-13 6.41929e-15 -6.41929e-15)
(-7.5165e-12 1.56298e-15 -1.56298e-15)
(-1.22517e-11 -5.68993e-16 5.68993e-16)
(-1.99831e-11 0 0)
(-1.21321e-11 0 0)
(4.66653e-12 0 0)
(1.34082e-12 0 0)
(5.93529e-12 0 0)
(1.5099e-11 0 0)
(1.72189e-11 0 0)
(1.14185e-11 0 0)
(8.18311e-12 -8.63444e-16 8.63444e-16)
(2.81744e-11 8.53853e-16 -8.53853e-16)
(4.21135e-11 0 0)
(4.22617e-11 0 0)
(2.35235e-11 -1.26747e-15 1.26747e-15)
(1.04603e-11 -1.79693e-18 1.79693e-18)
(6.13096e-12 -1.25505e-15 1.25505e-15)
(-3.42356e-12 -1.53986e-18 1.53986e-18)
(-8.84673e-12 -1.24363e-15 1.24363e-15)
(-1.38783e-11 0 0)
(-1.92945e-11 -8.22068e-16 8.22068e-16)
(-2.27284e-11 8.16151e-16 -8.16151e-16)
(-1.47213e-11 0 0)
(-3.05905e-11 1.21476e-15 -1.21476e-15)
(-2.68874e-11 -8.04501e-19 8.04501e-19)
(-6.08216e-12 1.20262e-15 -1.20262e-15)
(1.23584e-11 0 0)
(3.14174e-11 7.9496e-16 -7.9496e-16)
(3.71007e-11 -7.89847e-16 7.89847e-16)
(2.20795e-11 0 0)
(2.26097e-12 -9.22231e-16 9.22231e-16)
(-2.08803e-12 -4.1856e-15 4.1856e-15)
(-5.63844e-12 -9.76729e-15 9.76729e-15)
(-2.19553e-11 -8.35233e-15 8.35233e-15)
(-3.07072e-11 0 0)
(-2.99287e-11 8.27341e-15 -8.27341e-15)
(-1.88499e-11 9.62975e-15 -9.62975e-15)
(-4.0874e-12 4.13094e-15 -4.13094e-15)
(-2.58602e-12 9.27119e-16 -9.27119e-16)
(2.10897e-11 0 0)
(5.03426e-11 9.54766e-16 -9.54766e-16)
(4.92378e-11 4.1443e-15 -4.1443e-15)
(2.40607e-11 6.24716e-16 -6.24716e-16)
(2.46421e-11 -1.86578e-15 1.86578e-15)
(3.43288e-11 -6.55784e-15 6.55784e-15)
(2.40438e-11 -4.62021e-15 4.62021e-15)
(1.13669e-11 -4.88407e-15 4.88407e-15)
(3.54895e-12 -7.32921e-15 7.32921e-15)
(3.69932e-12 -1.19373e-14 1.19373e-14)
(1.33895e-12 -1.86892e-14 1.86892e-14)
(-2.81639e-12 -2.70978e-14 2.70978e-14)
(-1.1262e-11 -2.99416e-14 2.99416e-14)
(-1.92971e-11 -2.99766e-14 2.99766e-14)
(-1.99959e-11 -2.68609e-14 2.68609e-14)
(-2.53437e-11 -1.73069e-14 1.73069e-14)
(-2.1742e-11 -9.80134e-15 9.80134e-15)
(-8.60541e-12 -4.42715e-15 4.42715e-15)
(-8.33517e-12 -1.16634e-15 1.16634e-15)
(2.8014e-12 0 0)
(2.40306e-11 0 0)
(1.07864e-11 0 0)
(-3.98384e-12 0 0)
(-8.15143e-12 0 0)
(4.89804e-13 6.73757e-16 -6.73757e-16)
(1.35773e-11 3.2888e-15 -3.2888e-15)
(-8.98562e-14 -1.70447e-16 1.70447e-16)
(-1.70218e-11 -5.62466e-15 5.62466e-15)
(-1.19551e-11 -5.04451e-15 5.04451e-15)
(5.90095e-12 -6.46138e-15 6.46138e-15)
(1.47401e-11 -1.91121e-15 1.91121e-15)
(4.89537e-12 6.41744e-16 -6.41744e-16)
(-1.73115e-11 3.70597e-15 -3.70597e-15)
(-3.5342e-11 8.70948e-16 -8.70948e-16)
(-3.47966e-11 0 0)
(-2.02491e-11 0 0)
(-2.56923e-11 -3.55736e-16 3.55736e-16)
(-3.04794e-11 -2.63909e-15 2.63909e-15)
(-8.78958e-12 -6.83372e-15 6.83372e-15)
(1.05439e-11 -5.26763e-15 5.26763e-15)
(1.30355e-11 -9.42753e-15 9.42753e-15)
(-3.35e-12 -1.54674e-14 1.54674e-14)
(-1.94029e-11 -2.3266e-14 2.3266e-14)
(-1.95346e-11 -2.53839e-14 2.53839e-14)
(-1.3972e-11 -2.36187e-14 2.36187e-14)
(-5.53872e-12 -1.6258e-14 1.6258e-14)
(5.2176e-12 -1.06812e-14 1.06812e-14)
(1.35804e-11 -6.97901e-15 6.97901e-15)
(2.85152e-11 -5.13632e-15 5.13632e-15)
(3.64567e-11 -5.13813e-15 5.13813e-15)
(3.5827e-11 -6.96892e-15 6.96892e-15)
(2.31212e-11 -3.32505e-15 3.32505e-15)
(7.05968e-12 -1.50961e-15 1.50961e-15)
)
;

boundaryField
{
    wedge0
    {
        type            wedge;
    }
    wedge1
    {
        type            wedge;
    }
    wedge2
    {
        type            wedge;
    }
    wedge3
    {
        type            wedge;
    }
    outlet
    {
        type            zeroGradient;
    }
    defaultFaces
    {
        type            empty;
    }
}


// ************************************************************************* //
