/*--------------------------------*- C++ -*----------------------------------*\
| =========                 |                                                 |
| \\      /  F ield         | OpenFOAM: The Open Source CFD Toolbox           |
|  \\    /   O peration     | Version:  2212                                  |
|   \\  /    A nd           | Website:  www.openfoam.com                      |
|    \\/     M anipulation  |                                                 |
\*---------------------------------------------------------------------------*/
FoamFile
{
    version     2.0;
    format      ascii;
    arch        "LSB;label=32;scalar=64";
    class       volScalarField;
    location    "0.004";
    object      p;
}
// * * * * * * * * * * * * * * * * * * * * * * * * * * * * * * * * * * * * * //

dimensions      [1 -1 -2 0 0 0 0];

internalField   nonuniform List<scalar> 
100
(
100000
100000
100000
100000
100000
100000
100000
100000
100000
100000
100000
100000
100000
100000
100000
100000
100000
100000
100000
99999.9
99999.6
99998.9
99997
99991.9
99979.8
99952.3
99893.9
99778.1
99562.7
99188.9
98582
97659.6
96343.8
94574.9
92322.7
89591.1
86416.1
82858.6
78994.3
74905.1
70671.2
66367.2
62058.9
57802.5
53645.4
49627.2
45781.4
42138.1
38728.2
35590.6
32790.2
30464.2
28941.9
28563.6
28526.7
28515.9
28510.5
28508.1
28507.7
28508.7
28510.3
28512
28512.6
28509.3
28496.7
28464.2
28389
28223
27868.3
27142.2
25750
23354.5
19879.4
15946.4
12746.6
10978.8
10293.2
10080.6
10021.3
10005.4
10001.3
10000.3
10000.1
10000
10000
10000
10000
10000
10000
10000
10000
10000
10000
10000
10000
10000
10000
10000
10000
10000
)
;

boundaryField
{
    sides
    {
        type            zeroGradient;
    }
    empty
    {
        type            empty;
    }
}


// ************************************************************************* //
