/*--------------------------------*- C++ -*----------------------------------*\
| =========                 |                                                 |
| \\      /  F ield         | OpenFOAM: The Open Source CFD Toolbox           |
|  \\    /   O peration     | Version:  2312                                  |
|   \\  /    A nd           | Website:  www.openfoam.com                      |
|    \\/     M anipulation  |                                                 |
\*---------------------------------------------------------------------------*/
FoamFile
{
    version     2.0;
    format      ascii;
    arch        "LSB;label=32;scalar=64";
    class       volScalarField;
    location    "0.004";
    object      p;
}
// * * * * * * * * * * * * * * * * * * * * * * * * * * * * * * * * * * * * * //

dimensions      [1 -1 -2 0 0 0 0];

internalField   nonuniform List<scalar> 
100
(
99994.8
99990
99981.2
99965.7
99939.3
99895.6
99826
99718.6
99558.6
99328
99006.6
98573.2
98007.1
97289.8
96406.8
95348.9
94112.3
92699.5
91118
89379.9
87500.3
85496.7
83387.4
81190.9
78925.1
76607.2
74252.8
71876.1
69489.8
67105.3
64732.3
62379.4
60054.1
57762.6
55510.5
53302.5
51142.5
49034.2
46980.6
44984.7
43049
41176.6
39370.6
37635
35974.8
34397.4
32914.1
31542
30308.6
29257
28447.8
27940.6
27726.1
27672.4
27652.5
27640.7
27633.6
27629.7
27628.2
27628.6
27630.3
27633.1
27636.5
27640.4
27644.7
27649.1
27653.6
27658.1
27662.6
27667
27671.4
27675.7
27680
27684.4
27688.8
27693.2
27697.8
27702.5
27707.3
27712.4
27717.8
27723.4
27729.4
27735.7
27742.2
27748.8
27755
27760.1
27762
27757
27737
27686.3
27573.2
27336.6
26864.2
25966.4
24378.8
21871.7
18541.7
15150
)
;

boundaryField
{
    sides
    {
        type            zeroGradient;
    }
    empty
    {
        type            empty;
    }
}


// ************************************************************************* //
