/*--------------------------------*- C++ -*----------------------------------*\
| =========                 |                                                 |
| \\      /  F ield         | OpenFOAM: The Open Source CFD Toolbox           |
|  \\    /   O peration     | Version:  2312                                  |
|   \\  /    A nd           | Website:  www.openfoam.com                      |
|    \\/     M anipulation  |                                                 |
\*---------------------------------------------------------------------------*/
FoamFile
{
    version     2.0;
    format      ascii;
    arch        "LSB;label=32;scalar=64";
    class       volScalarField;
    location    "0.004";
    object      p;
}
// * * * * * * * * * * * * * * * * * * * * * * * * * * * * * * * * * * * * * //

dimensions      [1 -1 -2 0 0 0 0];

internalField   nonuniform List<scalar> 
100
(
100000
100000
100000
100000
100000
100000
100000
100000
100000
100000
100000
100000
100000
100000
100000
100000
100000
100000
100000
99999.9
99999.6
99998.9
99996.9
99991.9
99979.7
99952.3
99894.2
99779
99565.1
99194.1
98592.1
97677
96371.1
94614.6
92376.4
89659.7
86499.5
82955.5
79102.9
75023.1
70796.4
66497.2
62191.4
57935.7
53777.7
49757.1
45907.7
42259.5
38843
35696.5
32883.1
30536.3
28981.8
28586.6
28547.4
28534.9
28528.8
28526.8
28527.7
28530.3
28533.5
28536.4
28537.2
28533.4
28519.8
28485.4
28407.3
28236.8
27875.3
27139.8
25736.5
23331.2
19853
15926.6
12737.9
10977.3
10293.6
10081.1
10021.5
10005.5
10001.4
10000.3
10000.1
10000
10000
10000
10000
10000
10000
10000
10000
10000
10000
10000
10000
10000
10000
10000
10000
10000
)
;

boundaryField
{
    sides
    {
        type            zeroGradient;
    }
    empty
    {
        type            empty;
    }
}


// ************************************************************************* //
