/*--------------------------------*- C++ -*----------------------------------*\
| =========                 |                                                 |
| \\      /  F ield         | OpenFOAM: The Open Source CFD Toolbox           |
|  \\    /   O peration     | Version:  2312                                  |
|   \\  /    A nd           | Website:  www.openfoam.com                      |
|    \\/     M anipulation  |                                                 |
\*---------------------------------------------------------------------------*/
FoamFile
{
    version     2.0;
    format      ascii;
    arch        "LSB;label=32;scalar=64";
    class       volScalarField;
    location    "0.004";
    object      rho;
}
// * * * * * * * * * * * * * * * * * * * * * * * * * * * * * * * * * * * * * //

dimensions      [1 -3 0 0 0 0 0];

internalField   nonuniform List<scalar> 
100
(
0.280627
0.280618
0.280604
0.280577
0.280533
0.280459
0.280342
0.280161
0.279891
0.279501
0.278957
0.278223
0.27726
0.276037
0.274525
0.272705
0.270566
0.268107
0.265335
0.262263
0.258914
0.255309
0.251475
0.24744
0.243231
0.238872
0.23439
0.229806
0.225141
0.220415
0.215643
0.210842
0.206026
0.201206
0.196393
0.191599
0.186832
0.1821
0.177413
0.172779
0.168207
0.163705
0.159285
0.15496
0.150748
0.146673
0.142771
0.139096
0.135732
0.13281
0.130513
0.129021
0.128322
0.12805
0.127846
0.127631
0.127379
0.127066
0.126652
0.126083
0.125283
0.124152
0.122572
0.120421
0.117594
0.114031
0.109741
0.104807
0.0993838
0.0936736
0.0878983
0.0822683
0.0769608
0.072107
0.0677893
0.0640456
0.0608767
0.0582559
0.0561378
0.0544653
0.0531763
0.0522078
0.0514996
0.0509967
0.0506509
0.0504217
0.0502757
0.0501866
0.0501331
0.0500973
0.050061
0.0500006
0.0498776
0.049623
0.0491116
0.0481303
0.0463687
0.0435181
0.0395768
0.0352982
)
;

boundaryField
{
    sides
    {
        type            calculated;
        value           nonuniform List<scalar> 2(0.0352982 0.280627);
    }
    empty
    {
        type            empty;
    }
}


// ************************************************************************* //
