/*--------------------------------*- C++ -*----------------------------------*\
| =========                 |                                                 |
| \\      /  F ield         | OpenFOAM: The Open Source CFD Toolbox           |
|  \\    /   O peration     | Version:  2212                                  |
|   \\  /    A nd           | Website:  www.openfoam.com                      |
|    \\/     M anipulation  |                                                 |
\*---------------------------------------------------------------------------*/
FoamFile
{
    version     2.0;
    format      ascii;
    arch        "LSB;label=32;scalar=64";
    class       volScalarField;
    location    "0.004";
    object      rho;
}
// * * * * * * * * * * * * * * * * * * * * * * * * * * * * * * * * * * * * * //

dimensions      [1 -3 0 0 0 0 0];

internalField   nonuniform List<scalar> 
100
(
1.16103
1.16103
1.16103
1.16103
1.16103
1.16103
1.16103
1.16103
1.16103
1.16103
1.16103
1.16103
1.16103
1.16103
1.16103
1.16103
1.16103
1.16103
1.16103
1.16103
1.16103
1.16102
1.161
1.16096
1.16086
1.16063
1.16015
1.1592
1.15742
1.15432
1.14928
1.1416
1.13059
1.1157
1.09659
1.0732
1.04572
1.01454
0.980183
0.94326
0.904379
0.864127
0.823043
0.781611
0.740263
0.699384
0.65933
0.620452
0.583138
0.547898
0.515562
0.487813
0.46855
0.46162
0.457279
0.450999
0.441428
0.42758
0.409137
0.38675
0.36195
0.336707
0.312905
0.291947
0.274599
0.261009
0.250804
0.24317
0.236866
0.230127
0.220559
0.205511
0.183779
0.158384
0.136594
0.123753
0.118466
0.116763
0.116278
0.116148
0.116114
0.116105
0.116103
0.116103
0.116103
0.116103
0.116103
0.116103
0.116103
0.116103
0.116103
0.116103
0.116103
0.116103
0.116103
0.116103
0.116103
0.116103
0.116103
0.116103
)
;

boundaryField
{
    sides
    {
        type            calculated;
        value           nonuniform List<scalar> 2(0.116103 1.16103);
    }
    empty
    {
        type            empty;
    }
}


// ************************************************************************* //
