/*--------------------------------*- C++ -*----------------------------------*\
| =========                 |                                                 |
| \\      /  F ield         | OpenFOAM: The Open Source CFD Toolbox           |
|  \\    /   O peration     | Version:  2312                                  |
|   \\  /    A nd           | Website:  www.openfoam.com                      |
|    \\/     M anipulation  |                                                 |
\*---------------------------------------------------------------------------*/
FoamFile
{
    version     2.0;
    format      ascii;
    arch        "LSB;label=32;scalar=64";
    class       volScalarField;
    location    "0.004";
    object      rho;
}
// * * * * * * * * * * * * * * * * * * * * * * * * * * * * * * * * * * * * * //

dimensions      [1 -3 0 0 0 0 0];

internalField   nonuniform List<scalar> 
100
(
1.15862
1.15862
1.15862
1.15862
1.15862
1.15862
1.15862
1.15862
1.15862
1.15862
1.15862
1.15862
1.15862
1.15862
1.15862
1.15862
1.15862
1.15862
1.15862
1.15862
1.15862
1.15861
1.1586
1.15856
1.15845
1.15823
1.15775
1.15679
1.15502
1.15194
1.14693
1.13928
1.12832
1.1135
1.09446
1.07115
1.04373
1.01261
0.978297
0.941405
0.902542
0.862296
0.82121
0.779771
0.738414
0.697525
0.657461
0.618572
0.581241
0.545969
0.513562
0.485657
0.466105
0.459071
0.45484
0.448758
0.439494
0.426057
0.408092
0.386188
0.361814
0.336903
0.313324
0.292494
0.275203
0.261624
0.251402
0.24373
0.237369
0.230542
0.220847
0.205637
0.183737
0.158222
0.136382
0.12353
0.118237
0.116528
0.11604
0.115908
0.115874
0.115865
0.115863
0.115862
0.115862
0.115862
0.115862
0.115862
0.115862
0.115862
0.115862
0.115862
0.115862
0.115862
0.115862
0.115862
0.115862
0.115862
0.115862
0.115862
)
;

boundaryField
{
    sides
    {
        type            calculated;
        value           nonuniform List<scalar> 2(0.115862 1.15862);
    }
    empty
    {
        type            empty;
    }
}


// ************************************************************************* //
