/*--------------------------------*- C++ -*----------------------------------*\
| =========                 |                                                 |
| \\      /  F ield         | OpenFOAM: The Open Source CFD Toolbox           |
|  \\    /   O peration     | Version:  2312                                  |
|   \\  /    A nd           | Website:  www.openfoam.com                      |
|    \\/     M anipulation  |                                                 |
\*---------------------------------------------------------------------------*/
FoamFile
{
    version     2.0;
    format      ascii;
    arch        "LSB;label=32;scalar=64";
    class       volScalarField;
    location    "0.004";
    object      T;
}
// * * * * * * * * * * * * * * * * * * * * * * * * * * * * * * * * * * * * * //

dimensions      [0 0 0 1 0 0 0];

internalField   nonuniform List<scalar> 
100
(
300
300
300
300
300
300
300
300
300
300
300
300
300
300
300
300
300
300
300
300
300
299.999
299.997
299.993
299.983
299.959
299.909
299.811
299.627
299.309
298.793
298.006
296.877
295.347
293.375
290.946
288.063
284.753
281.051
277.001
272.651
268.047
263.232
258.251
253.143
247.947
242.705
237.464
232.284
227.259
222.558
218.55
216.125
216.444
218.158
221.018
225.628
232.728
242.981
256.786
274.115
294.413
316.578
339.079
360.21
378.449
392.758
402.688
408.187
409.186
405.063
394.366
375.571
349.88
324.642
308.876
302.605
300.706
300.185
300.048
300.012
300.003
300.001
300
300
300
300
300
300
300
300
300
300
300
300
300
300
300
300
300
)
;

boundaryField
{
    sides
    {
        type            zeroGradient;
    }
    empty
    {
        type            empty;
    }
}


// ************************************************************************* //
