/*--------------------------------*- C++ -*----------------------------------*\
| =========                 |                                                 |
| \\      /  F ield         | OpenFOAM: The Open Source CFD Toolbox           |
|  \\    /   O peration     | Version:  2212                                  |
|   \\  /    A nd           | Website:  www.openfoam.com                      |
|    \\/     M anipulation  |                                                 |
\*---------------------------------------------------------------------------*/
FoamFile
{
    version     2.0;
    format      ascii;
    arch        "LSB;label=32;scalar=64";
    class       volScalarField;
    location    "0.004";
    object      T;
}
// * * * * * * * * * * * * * * * * * * * * * * * * * * * * * * * * * * * * * //

dimensions      [0 0 0 1 0 0 0];

internalField   nonuniform List<scalar> 
100
(
300
300
300
300
300
300
300
300
300
300
300
300
300
300
300
300
300
300
300
300
300
299.999
299.997
299.993
299.982
299.959
299.908
299.807
299.621
299.296
298.769
297.965
296.813
295.252
293.243
290.768
287.835
284.468
280.707
276.595
272.18
267.51
262.631
257.584
252.412
247.154
241.852
236.554
231.323
226.256
221.528
217.52
215.147
215.522
217.287
220.229
224.962
232.228
242.694
256.75
274.358
294.944
317.386
340.131
361.461
379.846
394.258
404.257
409.799
410.81
406.646
395.821
376.765
350.684
325.034
309.004
302.634
300.71
300.185
300.047
300.012
300.003
300.001
300
300
300
300
300
300
300
300
300
300
300
300
300
300
300
300
300
)
;

boundaryField
{
    sides
    {
        type            zeroGradient;
    }
    empty
    {
        type            empty;
    }
}


// ************************************************************************* //
