/*--------------------------------*- C++ -*----------------------------------*\
| =========                 |                                                 |
| \\      /  F ield         | OpenFOAM: The Open Source CFD Toolbox           |
|  \\    /   O peration     | Version:  2312                                  |
|   \\  /    A nd           | Website:  www.openfoam.com                      |
|    \\/     M anipulation  |                                                 |
\*---------------------------------------------------------------------------*/
FoamFile
{
    version     2.0;
    format      ascii;
    arch        "LSB;label=32;scalar=64";
    class       volScalarField;
    location    "0.004";
    object      T;
}
// * * * * * * * * * * * * * * * * * * * * * * * * * * * * * * * * * * * * * //

dimensions      [0 0 0 1 0 0 0];

internalField   nonuniform List<scalar> 
100
(
299.994
299.988
299.977
299.959
299.927
299.875
299.791
299.662
299.47
299.193
298.806
298.284
297.6
296.731
295.658
294.365
292.844
291.093
289.117
286.923
284.524
281.934
279.17
276.249
273.187
270.002
266.709
263.322
259.854
256.318
252.725
249.084
245.405
241.696
237.964
234.217
230.46
226.7
222.944
219.198
215.469
211.765
208.095
204.473
200.914
197.441
194.09
190.914
187.995
185.465
183.51
182.322
181.908
181.942
182.1
182.33
182.642
183.067
183.656
184.487
185.676
187.386
189.826
193.245
197.921
204.136
212.151
222.175
234.337
248.661
265.041
283.224
302.803
323.237
343.879
364.039
383.052
400.352
415.531
428.369
438.837
447.069
453.315
457.889
461.123
463.329
464.779
465.689
466.218
466.467
466.47
466.18
465.42
463.794
460.524
454.211
442.64
423.132
394.433
361.347
)
;

boundaryField
{
    sides
    {
        type            zeroGradient;
    }
    empty
    {
        type            empty;
    }
}


// ************************************************************************* //
