/*--------------------------------*- C++ -*----------------------------------*\
| =========                 |                                                 |
| \\      /  F ield         | OpenFOAM: The Open Source CFD Toolbox           |
|  \\    /   O peration     | Version:  2212                                  |
|   \\  /    A nd           | Website:  www.openfoam.com                      |
|    \\/     M anipulation  |                                                 |
\*---------------------------------------------------------------------------*/
FoamFile
{
    version     2.0;
    format      ascii;
    arch        "LSB;label=32;scalar=64";
    class       volScalarField;
    location    "0.004";
    object      thermo:psi;
}
// * * * * * * * * * * * * * * * * * * * * * * * * * * * * * * * * * * * * * //

dimensions      [0 -2 2 0 0 0 0];

internalField   nonuniform List<scalar> 
100
(
1.16103e-05
1.16103e-05
1.16103e-05
1.16103e-05
1.16103e-05
1.16103e-05
1.16103e-05
1.16103e-05
1.16103e-05
1.16103e-05
1.16103e-05
1.16103e-05
1.16103e-05
1.16103e-05
1.16103e-05
1.16103e-05
1.16103e-05
1.16103e-05
1.16103e-05
1.16103e-05
1.16103e-05
1.16103e-05
1.16104e-05
1.16106e-05
1.1611e-05
1.16119e-05
1.16138e-05
1.16177e-05
1.1625e-05
1.16376e-05
1.16581e-05
1.16896e-05
1.17349e-05
1.1797e-05
1.18778e-05
1.19789e-05
1.2101e-05
1.22442e-05
1.24083e-05
1.25927e-05
1.2797e-05
1.30204e-05
1.32623e-05
1.35221e-05
1.37992e-05
1.40928e-05
1.44017e-05
1.47242e-05
1.50572e-05
1.53945e-05
1.5723e-05
1.60127e-05
1.61893e-05
1.61611e-05
1.60299e-05
1.58157e-05
1.5483e-05
1.49985e-05
1.43518e-05
1.35661e-05
1.26954e-05
1.18093e-05
1.09743e-05
1.02404e-05
9.63614e-06
9.16973e-06
8.83454e-06
8.61602e-06
8.49949e-06
8.47858e-06
8.56539e-06
8.79965e-06
9.2447e-06
9.93225e-06
1.07161e-05
1.1272e-05
1.15092e-05
1.15829e-05
1.16031e-05
1.16085e-05
1.16098e-05
1.16102e-05
1.16103e-05
1.16103e-05
1.16103e-05
1.16103e-05
1.16103e-05
1.16103e-05
1.16103e-05
1.16103e-05
1.16103e-05
1.16103e-05
1.16103e-05
1.16103e-05
1.16103e-05
1.16103e-05
1.16103e-05
1.16103e-05
1.16103e-05
1.16103e-05
)
;

boundaryField
{
    sides
    {
        type            calculated;
        value           nonuniform List<scalar> 2(1.16103e-05 1.16103e-05);
    }
    empty
    {
        type            empty;
    }
}


// ************************************************************************* //
