/*--------------------------------*- C++ -*----------------------------------*\
| =========                 |                                                 |
| \\      /  F ield         | OpenFOAM: The Open Source CFD Toolbox           |
|  \\    /   O peration     | Version:  2312                                  |
|   \\  /    A nd           | Website:  www.openfoam.com                      |
|    \\/     M anipulation  |                                                 |
\*---------------------------------------------------------------------------*/
FoamFile
{
    version     2.0;
    format      ascii;
    arch        "LSB;label=32;scalar=64";
    class       volVectorField;
    location    "0.004";
    object      U;
}
// * * * * * * * * * * * * * * * * * * * * * * * * * * * * * * * * * * * * * //

dimensions      [0 1 -1 0 0 0 0];

internalField   nonuniform List<vector> 
100
(
(-1.84306e-13 0 0)
(-1.98045e-13 0 0)
(-2.07516e-13 0 0)
(-9.27284e-14 0 0)
(-5.73699e-14 0 0)
(4.55602e-15 0 0)
(5.80669e-13 0 0)
(4.42911e-12 0 0)
(2.71972e-11 0 0)
(1.55944e-10 0 0)
(8.45905e-10 0 0)
(4.34387e-09 0 0)
(2.11197e-08 0 0)
(9.72313e-08 0 0)
(4.23884e-07 0 0)
(1.74984e-06 0 0)
(6.83947e-06 0 0)
(2.53073e-05 0 0)
(8.86275e-05 0 0)
(0.00029367 0 0)
(0.000920359 0 0)
(0.00272688 0 0)
(0.0076341 0 0)
(0.0201827 0 0)
(0.0503567 0 0)
(0.118498 0 0)
(0.262836 0 0)
(0.549298 0 0)
(1.08155 0 0)
(2.00728 0 0)
(3.51565 0 0)
(5.82274 0 0)
(9.14643 0 0)
(13.6772 0 0)
(19.5538 0 0)
(26.8511 0 0)
(35.5799 0 0)
(45.6983 0 0)
(57.1261 0 0)
(69.7605 0 0)
(83.4888 0 0)
(98.197 0 0)
(113.774 0 0)
(130.116 0 0)
(147.12 0 0)
(164.685 0 0)
(182.702 0 0)
(201.039 0 0)
(219.516 0 0)
(237.842 0 0)
(255.481 0 0)
(271.256 0 0)
(282.329 0 0)
(285.271 0 0)
(285.618 0 0)
(285.777 0 0)
(285.896 0 0)
(285.992 0 0)
(286.072 0 0)
(286.142 0 0)
(286.202 0 0)
(286.248 0 0)
(286.27 0 0)
(286.242 0 0)
(286.113 0 0)
(285.772 0 0)
(284.981 0 0)
(283.228 0 0)
(279.464 0 0)
(271.651 0 0)
(256.201 0 0)
(227.909 0 0)
(182.147 0 0)
(121.36 0 0)
(61.8327 0 0)
(23.4533 0 0)
(7.21849 0 0)
(2.0088 0 0)
(0.533602 0 0)
(0.137499 0 0)
(0.0344483 0 0)
(0.0083771 0 0)
(0.00197226 0 0)
(0.000448396 0 0)
(9.8213e-05 0 0)
(2.06815e-05 0 0)
(4.17936e-06 0 0)
(8.092e-07 0 0)
(1.49902e-07 0 0)
(2.65348e-08 0 0)
(4.48318e-09 0 0)
(7.22286e-10 0 0)
(1.10963e-10 0 0)
(1.63689e-11 0 0)
(2.44701e-12 0 0)
(4.95164e-13 0 0)
(2.077e-13 0 0)
(1.51657e-13 0 0)
(9.67557e-14 0 0)
(6.05793e-14 0 0)
)
;

boundaryField
{
    sides
    {
        type            zeroGradient;
    }
    empty
    {
        type            empty;
    }
}


// ************************************************************************* //
