/*--------------------------------*- C++ -*----------------------------------*\
| =========                 |                                                 |
| \\      /  F ield         | OpenFOAM: The Open Source CFD Toolbox           |
|  \\    /   O peration     | Version:  2212                                  |
|   \\  /    A nd           | Website:  www.openfoam.com                      |
|    \\/     M anipulation  |                                                 |
\*---------------------------------------------------------------------------*/
FoamFile
{
    version     2.0;
    format      ascii;
    arch        "LSB;label=32;scalar=64";
    class       volVectorField;
    location    "0.004";
    object      U;
}
// * * * * * * * * * * * * * * * * * * * * * * * * * * * * * * * * * * * * * //

dimensions      [0 1 -1 0 0 0 0];

internalField   nonuniform List<vector> 
100
(
(1.41203e-13 0 0)
(1.38884e-13 0 0)
(1.11015e-13 0 0)
(4.69678e-14 0 0)
(6.4007e-14 0 0)
(7.22774e-14 0 0)
(1.50285e-13 0 0)
(1.11418e-13 0 0)
(5.08828e-14 0 0)
(6.93261e-14 0 0)
(6.85709e-14 0 0)
(7.29235e-14 0 0)
(6.55494e-14 0 0)
(-6.3545e-14 0 0)
(-5.80531e-15 0 0)
(-1.58599e-14 0 0)
(3.24452e-14 0 0)
(3.8652e-14 0 0)
(9.35796e-15 0 0)
(5.28679e-14 0 0)
(6.30095e-14 0 0)
(3.32703e-14 0 0)
(2.50496e-14 0 0)
(-1.8198e-14 0 0)
(-2.22256e-14 0 0)
(8.52603e-15 0 0)
(-1.59489e-14 0 0)
(-6.47097e-14 0 0)
(-4.81092e-14 0 0)
(-1.19532e-13 0 0)
(-2.61334e-13 0 0)
(2.0837e-16 0 0)
(2.39719e-09 0 0)
(6.21822e-05 0 0)
(0.0426848 0 0)
(1.90391 0 0)
(13.6045 0 0)
(34.9841 0 0)
(56.7991 0 0)
(76.6278 0 0)
(95.3487 0 0)
(113.684 0 0)
(131.951 0 0)
(150.289 0 0)
(168.784 0 0)
(187.48 0 0)
(206.381 0 0)
(225.399 0 0)
(244.331 0 0)
(262.942 0 0)
(279.206 0 0)
(289.503 0 0)
(283.413 0 0)
(282.927 0 0)
(284.188 0 0)
(285.245 0 0)
(285.306 0 0)
(284.697 0 0)
(284.518 0 0)
(284.769 0 0)
(285.639 0 0)
(286.809 0 0)
(281.481 0 0)
(285.727 0 0)
(292.505 0 0)
(289.498 0 0)
(281.431 0 0)
(277.572 0 0)
(277.098 0 0)
(279.68 0 0)
(284.257 0 0)
(279.452 0 0)
(181.101 0 0)
(11.8275 0 0)
(0.00606288 0 0)
(1.3266e-08 0 0)
(-6.14624e-14 0 0)
(-1.00752e-13 0 0)
(-8.59499e-14 0 0)
(-5.5774e-14 0 0)
(-7.08471e-14 0 0)
(-7.66959e-14 0 0)
(3.32731e-14 0 0)
(3.81655e-14 0 0)
(-7.38395e-14 0 0)
(-4.33401e-14 0 0)
(-7.59331e-14 0 0)
(-3.39412e-14 0 0)
(-3.05616e-14 0 0)
(-1.22925e-13 0 0)
(-1.18862e-13 0 0)
(-2.12767e-13 0 0)
(-2.06579e-13 0 0)
(-1.58297e-13 0 0)
(-7.55335e-14 0 0)
(-2.81195e-14 0 0)
(-1.10959e-13 0 0)
(-1.12418e-13 0 0)
(-1.51016e-13 0 0)
(-2.2127e-13 0 0)
)
;

boundaryField
{
    sides
    {
        type            zeroGradient;
    }
    empty
    {
        type            empty;
    }
}


// ************************************************************************* //
