/*--------------------------------*- C++ -*----------------------------------*\
| =========                 |                                                 |
| \\      /  F ield         | OpenFOAM: The Open Source CFD Toolbox           |
|  \\    /   O peration     | Version:  2312                                  |
|   \\  /    A nd           | Website:  www.openfoam.com                      |
|    \\/     M anipulation  |                                                 |
\*---------------------------------------------------------------------------*/
FoamFile
{
    version     2.0;
    format      ascii;
    arch        "LSB;label=32;scalar=64";
    class       volVectorField;
    location    "0.004";
    object      U;
}
// * * * * * * * * * * * * * * * * * * * * * * * * * * * * * * * * * * * * * //

dimensions      [0 1 -1 0 0 0 0];

internalField   nonuniform List<vector> 
100
(
(0.0238329 0 0)
(0.046184 0 0)
(0.0868757 0 0)
(0.158601 0 0)
(0.280954 0 0)
(0.48287 0 0)
(0.805131 0 0)
(1.30246 0 0)
(2.04461 0 0)
(3.11573 0 0)
(4.61169 0 0)
(6.63517 0 0)
(9.28913 0 0)
(12.6694 0 0)
(16.8581 0 0)
(21.9177 0 0)
(27.8885 0 0)
(34.7879 0 0)
(42.6116 0 0)
(51.3369 0 0)
(60.9266 0 0)
(71.3331 0 0)
(82.5022 0 0)
(94.3767 0 0)
(106.899 0 0)
(120.012 0 0)
(133.662 0 0)
(147.798 0 0)
(162.375 0 0)
(177.348 0 0)
(192.68 0 0)
(208.335 0 0)
(224.281 0 0)
(240.488 0 0)
(256.93 0 0)
(273.579 0 0)
(290.412 0 0)
(307.405 0 0)
(324.532 0 0)
(341.767 0 0)
(359.08 0 0)
(376.436 0 0)
(393.79 0 0)
(411.085 0 0)
(428.242 0 0)
(445.146 0 0)
(461.625 0 0)
(477.414 0 0)
(492.09 0 0)
(504.994 0 0)
(515.19 0 0)
(521.713 0 0)
(524.52 0 0)
(525.252 0 0)
(525.547 0 0)
(525.739 0 0)
(525.874 0 0)
(525.968 0 0)
(526.034 0 0)
(526.079 0 0)
(526.11 0 0)
(526.132 0 0)
(526.149 0 0)
(526.163 0 0)
(526.178 0 0)
(526.195 0 0)
(526.215 0 0)
(526.239 0 0)
(526.268 0 0)
(526.303 0 0)
(526.342 0 0)
(526.386 0 0)
(526.436 0 0)
(526.49 0 0)
(526.55 0 0)
(526.616 0 0)
(526.688 0 0)
(526.766 0 0)
(526.851 0 0)
(526.944 0 0)
(527.044 0 0)
(527.152 0 0)
(527.268 0 0)
(527.392 0 0)
(527.522 0 0)
(527.654 0 0)
(527.78 0 0)
(527.881 0 0)
(527.917 0 0)
(527.809 0 0)
(527.391 0 0)
(526.333 0 0)
(523.97 0 0)
(519.01 0 0)
(509.003 0 0)
(489.595 0 0)
(453.921 0 0)
(393.585 0 0)
(304.059 0 0)
(197.297 0 0)
)
;

boundaryField
{
    sides
    {
        type            zeroGradient;
    }
    empty
    {
        type            empty;
    }
}


// ************************************************************************* //
