/*--------------------------------*- C++ -*----------------------------------*\
| =========                 |                                                 |
| \\      /  F ield         | OpenFOAM: The Open Source CFD Toolbox           |
|  \\    /   O peration     | Version:  2212                                  |
|   \\  /    A nd           | Website:  www.openfoam.com                      |
|    \\/     M anipulation  |                                                 |
\*---------------------------------------------------------------------------*/
FoamFile
{
    version     2.0;
    format      ascii;
    arch        "LSB;label=32;scalar=64";
    class       volVectorField;
    location    "0.004";
    object      U;
}
// * * * * * * * * * * * * * * * * * * * * * * * * * * * * * * * * * * * * * //

dimensions      [0 1 -1 0 0 0 0];

internalField   nonuniform List<vector> 
100
(
(4.78558e-14 0 0)
(5.81713e-14 0 0)
(1.29727e-14 0 0)
(2.08362e-14 0 0)
(7.11726e-14 0 0)
(1.3092e-13 0 0)
(6.19881e-13 0 0)
(3.8292e-12 0 0)
(2.35238e-11 0 0)
(1.37072e-10 0 0)
(7.5394e-10 0 0)
(3.92159e-09 0 0)
(1.92959e-08 0 0)
(8.98231e-08 0 0)
(3.95608e-07 0 0)
(1.64855e-06 0 0)
(6.49933e-06 0 0)
(2.42388e-05 0 0)
(8.54954e-05 0 0)
(0.00028513 0 0)
(0.000898796 0 0)
(0.00267679 0 0)
(0.0075281 0 0)
(0.0199817 0 0)
(0.0500251 0 0)
(0.118055 0 0)
(0.262473 0 0)
(0.549567 0 0)
(1.08362 0 0)
(2.01316 0 0)
(3.52823 0 0)
(5.84555 0 0)
(9.18301 0 0)
(13.7303 0 0)
(19.6248 0 0)
(26.9391 0 0)
(35.682 0 0)
(45.8095 0 0)
(57.2399 0 0)
(69.8694 0 0)
(83.5845 0 0)
(98.2711 0 0)
(113.819 0 0)
(130.122 0 0)
(147.08 0 0)
(164.592 0 0)
(182.546 0 0)
(200.812 0 0)
(219.206 0 0)
(237.432 0 0)
(254.939 0 0)
(270.525 0 0)
(281.327 0 0)
(284.135 0 0)
(284.467 0 0)
(284.617 0 0)
(284.734 0 0)
(284.837 0 0)
(284.931 0 0)
(285.019 0 0)
(285.098 0 0)
(285.161 0 0)
(285.195 0 0)
(285.177 0 0)
(285.059 0 0)
(284.735 0 0)
(283.971 0 0)
(282.264 0 0)
(278.572 0 0)
(270.87 0 0)
(255.572 0 0)
(227.469 0 0)
(181.901 0 0)
(121.255 0 0)
(61.777 0 0)
(23.4021 0 0)
(7.18173 0 0)
(1.98965 0 0)
(0.525379 0 0)
(0.134383 0 0)
(0.0333753 0 0)
(0.0080364 0 0)
(0.00187172 0 0)
(0.000420675 0 0)
(9.10422e-05 0 0)
(1.89358e-05 0 0)
(3.77841e-06 0 0)
(7.22149e-07 0 0)
(1.32009e-07 0 0)
(2.30489e-08 0 0)
(3.83886e-09 0 0)
(6.09039e-10 0 0)
(9.18539e-11 0 0)
(1.30404e-11 0 0)
(1.6088e-12 0 0)
(-3.79306e-14 0 0)
(-2.34369e-13 0 0)
(-1.93595e-13 0 0)
(-1.45586e-13 0 0)
(-1.52608e-13 0 0)
)
;

boundaryField
{
    sides
    {
        type            zeroGradient;
    }
    empty
    {
        type            empty;
    }
}


// ************************************************************************* //
