/*--------------------------------*- C++ -*----------------------------------*\
| =========                 |                                                 |
| \\      /  F ield         | OpenFOAM: The Open Source CFD Toolbox           |
|  \\    /   O peration     | Version:  2312                                  |
|   \\  /    A nd           | Website:  www.openfoam.com                      |
|    \\/     M anipulation  |                                                 |
\*---------------------------------------------------------------------------*/
FoamFile
{
    version     2.0;
    format      ascii;
    arch        "LSB;label=32;scalar=64";
    class       volScalarField;
    location    "0.034";
    object      p;
}
// * * * * * * * * * * * * * * * * * * * * * * * * * * * * * * * * * * * * * //

dimensions      [1 -1 -2 0 0 0 0];

internalField   nonuniform List<scalar> 
100
(
43726.5
43489.9
43011.7
42739.8
42194.1
42017.8
41381.3
41292
40603.5
40535.9
39877.9
39749.1
39188.4
38961
38502.8
38198.3
37805.6
37464.8
37101.6
36752
36400.2
36052.7
35707.2
35364.6
35024.8
34688
34354.3
34023.8
33696.8
33373.2
33053.5
32737.5
32425.8
32117.8
31815.6
31515.4
31225.1
30931.2
30658.2
30365.4
30120.1
29817.6
29617.6
29288.9
29156.6
28784.8
28738.4
28318.7
28359.1
27910.7
28012.2
27581.1
27696
27342.2
27416
27196.3
27178.5
27141.7
26979.8
27178.1
26802.3
27304.3
26625.9
27506.1
26448.8
27742.9
26302.8
27948
26244.4
28051.2
26321.7
28016.3
26536.6
27870
26832.6
27694.9
27126.2
27584.4
27366.8
27597.4
27580.9
27767.7
27892.9
28207
28605.5
29327.2
30330.5
31722.4
33289.4
34884.1
36228.1
37283.4
37984.5
38453.3
38723.7
38907.5
39002.5
39080.8
39121
39167.3
)
;

boundaryField
{
    sides
    {
        type            zeroGradient;
    }
    empty
    {
        type            empty;
    }
}


// ************************************************************************* //
