/*--------------------------------*- C++ -*----------------------------------*\
| =========                 |                                                 |
| \\      /  F ield         | OpenFOAM: The Open Source CFD Toolbox           |
|  \\    /   O peration     | Version:  2312                                  |
|   \\  /    A nd           | Website:  www.openfoam.com                      |
|    \\/     M anipulation  |                                                 |
\*---------------------------------------------------------------------------*/
FoamFile
{
    version     2.0;
    format      ascii;
    arch        "LSB;label=32;scalar=64";
    class       volScalarField;
    location    "0.034";
    object      rho;
}
// * * * * * * * * * * * * * * * * * * * * * * * * * * * * * * * * * * * * * //

dimensions      [1 -3 0 0 0 0 0];

internalField   nonuniform List<scalar> 
100
(
0.601542
0.599098
0.59617
0.593227
0.590492
0.587563
0.584917
0.582048
0.5794
0.57669
0.573971
0.571462
0.568723
0.566348
0.563716
0.561394
0.55893
0.556633
0.554291
0.551999
0.549678
0.547333
0.54493
0.542453
0.539884
0.537215
0.534441
0.531562
0.528584
0.525519
0.522377
0.519176
0.51593
0.512655
0.509364
0.506077
0.502793
0.49955
0.496315
0.493169
0.490006
0.487012
0.48394
0.481151
0.478194
0.475648
0.472865
0.470565
0.468062
0.465982
0.463888
0.462004
0.460421
0.458751
0.457716
0.456301
0.455804
0.454647
0.454675
0.453692
0.454245
0.453295
0.454335
0.453337
0.4547
0.453756
0.455103
0.454514
0.455407
0.455526
0.455633
0.456612
0.455939
0.457571
0.456522
0.458324
0.457489
0.459036
0.45888
0.460169
0.460932
0.46254
0.46467
0.468105
0.473539
0.482152
0.494643
0.510852
0.528922
0.546293
0.560783
0.57149
0.578704
0.583321
0.586111
0.587725
0.588698
0.589374
0.589856
0.590106
)
;

boundaryField
{
    sides
    {
        type            zeroGradient;
    }
    empty
    {
        type            empty;
    }
}


// ************************************************************************* //
