/*--------------------------------*- C++ -*----------------------------------*\
| =========                 |                                                 |
| \\      /  F ield         | OpenFOAM: The Open Source CFD Toolbox           |
|  \\    /   O peration     | Version:  2312                                  |
|   \\  /    A nd           | Website:  www.openfoam.com                      |
|    \\/     M anipulation  |                                                 |
\*---------------------------------------------------------------------------*/
FoamFile
{
    version     2.0;
    format      ascii;
    arch        "LSB;label=32;scalar=64";
    class       volScalarField;
    location    "0.034";
    object      T;
}
// * * * * * * * * * * * * * * * * * * * * * * * * * * * * * * * * * * * * * //

dimensions      [0 0 0 1 0 0 0];

internalField   nonuniform List<scalar> 
100
(
252.663
252.322
250.773
250.423
248.371
248.566
245.909
246.587
243.583
244.321
241.493
241.771
239.508
239.117
237.408
236.505
235.105
233.948
232.658
231.423
230.175
228.954
227.761
226.605
225.496
224.437
223.432
222.481
221.583
220.736
219.936
219.176
218.456
217.763
217.108
216.456
215.863
215.219
214.71
214.016
213.658
212.812
212.727
211.585
211.931
210.35
211.246
209.178
210.597
208.192
209.893
207.505
209.086
207.167
208.195
207.168
207.258
207.503
206.254
208.219
205.091
209.37
203.7
210.898
202.183
212.517
200.889
213.731
200.309
214.043
200.799
213.269
202.303
211.71
204.298
210.034
206.097
208.872
207.295
208.456
207.987
208.667
208.647
209.448
209.97
211.421
213.133
215.842
218.765
221.955
224.55
226.762
228.146
229.134
229.646
230.103
230.283
230.481
230.53
230.705
)
;

boundaryField
{
    sides
    {
        type            zeroGradient;
    }
    empty
    {
        type            empty;
    }
}


// ************************************************************************* //
