/*--------------------------------*- C++ -*----------------------------------*\
| =========                 |                                                 |
| \\      /  F ield         | OpenFOAM: The Open Source CFD Toolbox           |
|  \\    /   O peration     | Version:  2312                                  |
|   \\  /    A nd           | Website:  www.openfoam.com                      |
|    \\/     M anipulation  |                                                 |
\*---------------------------------------------------------------------------*/
FoamFile
{
    version     2.0;
    format      ascii;
    arch        "LSB;label=32;scalar=64";
    class       volScalarField;
    location    "0.034";
    object      thermo:e;
}
// * * * * * * * * * * * * * * * * * * * * * * * * * * * * * * * * * * * * * //

dimensions      [0 2 -2 0 0 0 0];

internalField   nonuniform List<scalar> 
100
(
181715
181470
180356
180104
178628
178769
176857
177345
175185
175715
173682
173881
172254
171973
170744
170094
169088
168255
167328
166439
165542
164664
163805
162975
162176
161415
160692
160008
159363
158753
158178
157632
157114
156615
156144
155675
155249
154786
154420
153920
153663
153055
152993
152172
152421
151283
151928
150441
151462
149732
150955
149238
150375
148994
149734
148995
149060
149236
148338
149751
147501
150579
146501
151678
145410
152842
144479
153715
144062
153940
144415
153383
145496
152262
146931
151057
148225
150220
149086
149921
149584
150073
150059
150635
151011
152054
153285
155233
157335
159630
161497
163087
164083
164793
165162
165490
165620
165762
165797
165923
)
;

boundaryField
{
    sides
    {
        type            zeroGradient;
    }
    empty
    {
        type            empty;
    }
}


// ************************************************************************* //
