/*--------------------------------*- C++ -*----------------------------------*\
| =========                 |                                                 |
| \\      /  F ield         | OpenFOAM: The Open Source CFD Toolbox           |
|  \\    /   O peration     | Version:  2312                                  |
|   \\  /    A nd           | Website:  www.openfoam.com                      |
|    \\/     M anipulation  |                                                 |
\*---------------------------------------------------------------------------*/
FoamFile
{
    version     2.0;
    format      ascii;
    arch        "LSB;label=32;scalar=64";
    class       volVectorField;
    location    "0.034";
    object      U;
}
// * * * * * * * * * * * * * * * * * * * * * * * * * * * * * * * * * * * * * //

dimensions      [0 1 -1 0 0 0 0];

internalField   nonuniform List<vector> 
100
(
(142.434 0 0)
(144.718 0 0)
(147.208 0 0)
(149.854 0 0)
(152.262 0 0)
(154.927 0 0)
(157.342 0 0)
(159.95 0 0)
(162.457 0 0)
(164.943 0 0)
(167.573 0 0)
(169.963 0 0)
(172.644 0 0)
(175.032 0 0)
(177.677 0 0)
(180.122 0 0)
(182.703 0 0)
(185.195 0 0)
(187.73 0 0)
(190.236 0 0)
(192.746 0 0)
(195.245 0 0)
(197.738 0 0)
(200.225 0 0)
(202.707 0 0)
(205.183 0 0)
(207.654 0 0)
(210.121 0 0)
(212.583 0 0)
(215.041 0 0)
(217.495 0 0)
(219.941 0 0)
(222.382 0 0)
(224.812 0 0)
(227.234 0 0)
(229.638 0 0)
(232.037 0 0)
(234.402 0 0)
(236.773 0 0)
(239.077 0 0)
(241.418 0 0)
(243.634 0 0)
(245.941 0 0)
(248.039 0 0)
(250.293 0 0)
(252.259 0 0)
(254.413 0 0)
(256.251 0 0)
(258.228 0 0)
(259.958 0 0)
(261.67 0 0)
(263.299 0 0)
(264.686 0 0)
(266.193 0 0)
(267.234 0 0)
(268.586 0 0)
(269.284 0 0)
(270.485 0 0)
(270.84 0 0)
(271.95 0 0)
(271.961 0 0)
(273.062 0 0)
(272.767 0 0)
(273.888 0 0)
(273.419 0 0)
(274.462 0 0)
(274.063 0 0)
(274.815 0 0)
(274.767 0 0)
(275.019 0 0)
(275.499 0 0)
(275.199 0 0)
(276.149 0 0)
(275.482 0 0)
(276.607 0 0)
(275.897 0 0)
(276.823 0 0)
(276.307 0 0)
(276.778 0 0)
(276.409 0 0)
(276.297 0 0)
(275.663 0 0)
(274.649 0 0)
(272.759 0 0)
(269.571 0 0)
(264.426 0 0)
(257.103 0 0)
(247.95 0 0)
(238.193 0 0)
(229.236 0 0)
(222.084 0 0)
(217.042 0 0)
(213.881 0 0)
(212.072 0 0)
(211.164 0 0)
(210.823 0 0)
(210.815 0 0)
(210.964 0 0)
(211.195 0 0)
(211.416 0 0)
)
;

boundaryField
{
    sides
    {
        type            mywaveTransmissive;
        gamma           1.4;
        value           nonuniform List<vector> 2((211.531 0 0) (141.618 0 0));
    }
    empty
    {
        type            empty;
    }
}


// ************************************************************************* //
