/*--------------------------------*- C++ -*----------------------------------*\
| =========                 |                                                 |
| \\      /  F ield         | OpenFOAM: The Open Source CFD Toolbox           |
|  \\    /   O peration     | Version:  2312                                  |
|   \\  /    A nd           | Website:  www.openfoam.com                      |
|    \\/     M anipulation  |                                                 |
\*---------------------------------------------------------------------------*/
FoamFile
{
    version     2.0;
    format      ascii;
    arch        "LSB;label=32;scalar=64";
    class       volScalarField;
    location    "0.043";
    object      rho;
}
// * * * * * * * * * * * * * * * * * * * * * * * * * * * * * * * * * * * * * //

dimensions      [1 -3 0 0 0 0 0];

internalField   nonuniform List<scalar> 
100
(
0.52571
0.5227
0.519335
0.516221
0.512959
0.510002
0.507024
0.504317
0.501694
0.499281
0.496996
0.494866
0.492854
0.490954
0.489143
0.487407
0.48573
0.484102
0.482509
0.480948
0.479403
0.477888
0.476367
0.474893
0.473379
0.471956
0.470437
0.46908
0.467556
0.466274
0.464768
0.463548
0.462115
0.460912
0.459621
0.458377
0.457284
0.455951
0.455076
0.453624
0.452961
0.451366
0.450908
0.449154
0.448889
0.447003
0.446876
0.444985
0.444857
0.443201
0.442869
0.441727
0.441023
0.44058
0.439481
0.439718
0.438397
0.439087
0.437838
0.438661
0.437745
0.438452
0.437968
0.438477
0.438356
0.438717
0.438819
0.439119
0.439328
0.43963
0.439903
0.440246
0.44061
0.44108
0.441682
0.442577
0.443991
0.446419
0.450649
0.457805
0.468882
0.483924
0.501422
0.518805
0.533761
0.54516
0.553082
0.558242
0.561484
0.563497
0.564761
0.565589
0.566168
0.566612
0.566977
0.567305
0.567613
0.567913
0.568208
0.568418
)
;

boundaryField
{
    sides
    {
        type            zeroGradient;
    }
    empty
    {
        type            empty;
    }
}


// ************************************************************************* //
