/*--------------------------------*- C++ -*----------------------------------*\
| =========                 |                                                 |
| \\      /  F ield         | OpenFOAM: The Open Source CFD Toolbox           |
|  \\    /   O peration     | Version:  2312                                  |
|   \\  /    A nd           | Website:  www.openfoam.com                      |
|    \\/     M anipulation  |                                                 |
\*---------------------------------------------------------------------------*/
FoamFile
{
    version     2.0;
    format      ascii;
    arch        "LSB;label=32;scalar=64";
    class       volScalarField;
    location    "0.028";
    object      thermo:e;
}
// * * * * * * * * * * * * * * * * * * * * * * * * * * * * * * * * * * * * * //

dimensions      [0 2 -2 0 0 0 0];

internalField   nonuniform List<scalar> 
100
(
187066
186409
185315
184294
183223
182168
181018
179982
178675
177804
176217
175758
173768
173899
171561
172128
169826
170342
168543
168629
167454
167135
166362
165852
165242
164687
164123
163570
163019
162472
161928
161387
160849
160314
159782
159253
158729
158209
157694
157185
156682
156186
155699
155221
154755
154299
153863
153433
153042
152632
152320
151906
151736
151254
151335
150672
151144
150172
151141
149796
151228
149614
151274
149681
151195
149969
150998
150390
150723
150903
150350
151567
149754
152512
148826
153793
147599
155221
146416
156394
145840
156768
146289
156160
147923
155075
150323
154251
152814
154841
155891
158096
160072
162463
163779
165397
166333
166749
166690
166938
)
;

boundaryField
{
    sides
    {
        type            zeroGradient;
    }
    empty
    {
        type            empty;
    }
}


// ************************************************************************* //
