/*--------------------------------*- C++ -*----------------------------------*\
| =========                 |                                                 |
| \\      /  F ield         | OpenFOAM: The Open Source CFD Toolbox           |
|  \\    /   O peration     | Version:  2312                                  |
|   \\  /    A nd           | Website:  www.openfoam.com                      |
|    \\/     M anipulation  |                                                 |
\*---------------------------------------------------------------------------*/
FoamFile
{
    version     2.0;
    format      ascii;
    arch        "LSB;label=32;scalar=64";
    class       volScalarField;
    location    "0.005";
    object      p;
}
// * * * * * * * * * * * * * * * * * * * * * * * * * * * * * * * * * * * * * //

dimensions      [1 -1 -2 0 0 0 0];

internalField   nonuniform List<scalar> 
100
(
100207
100207
100207
100207
100207
100207
100207
100207
100207
100207
100207
100207
100207
100207
100207
100207
100207
100207
100207
100207
100207
100207
100207
100206
100205
100201
100188
100148
100038
99763.8
99151.3
97933.3
95801.6
92538.8
88165.8
82968.5
77355.6
71855.8
66830.2
62240.5
58035.6
54159.7
50568.3
47234.1
44132.2
41242.2
38549.5
36072.8
33925.8
32010.7
30280.4
29228.9
28578.5
28261.9
28095.4
28075.3
28295.4
28386.7
28465.5
28497.8
28491.6
28486.4
28566.7
28449.9
28824.9
27854.8
29097.3
28297.4
28692.2
28509
28575.1
28519.2
28500.5
28495.9
28554.1
28552.6
28141.5
23721.8
12659.7
10254.3
10039.1
10022.1
10020.8
10020.7
10020.7
10020.7
10020.7
10020.7
10020.7
10020.7
10020.7
10020.7
10020.7
10020.7
10020.7
10020.7
10020.7
10020.7
10020.7
10020.7
)
;

boundaryField
{
    sides
    {
        type            zeroGradient;
    }
    empty
    {
        type            empty;
    }
}


// ************************************************************************* //
