/*--------------------------------*- C++ -*----------------------------------*\
| =========                 |                                                 |
| \\      /  F ield         | OpenFOAM: The Open Source CFD Toolbox           |
|  \\    /   O peration     | Version:  2312                                  |
|   \\  /    A nd           | Website:  www.openfoam.com                      |
|    \\/     M anipulation  |                                                 |
\*---------------------------------------------------------------------------*/
FoamFile
{
    version     2.0;
    format      ascii;
    arch        "LSB;label=32;scalar=64";
    class       volScalarField;
    location    "0.005";
    object      rho;
}
// * * * * * * * * * * * * * * * * * * * * * * * * * * * * * * * * * * * * * //

dimensions      [1 -3 0 0 0 0 0];

internalField   nonuniform List<scalar> 
100
(
1.16102
1.16102
1.16102
1.16102
1.16102
1.16102
1.16102
1.16102
1.16102
1.16102
1.16102
1.16102
1.16102
1.16102
1.16102
1.16102
1.16102
1.16102
1.16102
1.16102
1.16102
1.16102
1.16102
1.16102
1.16101
1.16097
1.16086
1.16053
1.15962
1.15735
1.15227
1.14214
1.12433
1.09686
1.05963
1.01472
0.965242
0.915728
0.869602
0.826593
0.786376
0.74855
0.712792
0.67893
0.646809
0.616309
0.587305
0.55995
0.535909
0.51459
0.495828
0.482254
0.47208
0.467844
0.467876
0.469571
0.473219
0.474201
0.473584
0.469955
0.461343
0.445316
0.419529
0.378954
0.332663
0.278672
0.260326
0.243032
0.23992
0.236643
0.236237
0.235733
0.235668
0.235821
0.236397
0.23658
0.234371
0.207947
0.134929
0.117958
0.116253
0.116114
0.116103
0.116102
0.116102
0.116102
0.116102
0.116102
0.116102
0.116102
0.116102
0.116102
0.116102
0.116102
0.116102
0.116102
0.116102
0.116102
0.116102
0.116102
)
;

boundaryField
{
    sides
    {
        type            zeroGradient;
    }
    empty
    {
        type            empty;
    }
}


// ************************************************************************* //
