/*--------------------------------*- C++ -*----------------------------------*\
| =========                 |                                                 |
| \\      /  F ield         | OpenFOAM: The Open Source CFD Toolbox           |
|  \\    /   O peration     | Version:  2312                                  |
|   \\  /    A nd           | Website:  www.openfoam.com                      |
|    \\/     M anipulation  |                                                 |
\*---------------------------------------------------------------------------*/
FoamFile
{
    version     2.0;
    format      ascii;
    arch        "LSB;label=32;scalar=64";
    class       volScalarField;
    location    "0.005";
    object      T;
}
// * * * * * * * * * * * * * * * * * * * * * * * * * * * * * * * * * * * * * //

dimensions      [0 0 0 1 0 0 0];

internalField   nonuniform List<scalar> 
100
(
300
300
300
300
300
300
300
300
300
300
300
300
300
300
300
300
300
300
300
300
300
300
300
300
299.999
299.995
299.984
299.949
299.855
299.62
299.094
298.04
296.171
293.249
289.207
284.205
278.56
272.746
267.125
261.725
256.524
251.489
246.592
241.821
237.16
232.598
228.149
223.921
220.04
216.22
212.272
210.669
210.42
209.973
208.722
207.82
207.834
208.073
208.922
210.774
214.662
222.348
236.68
260.95
301.181
347.432
388.508
404.712
415.681
418.748
420.44
420.514
420.354
420.013
419.845
419.498
417.355
396.515
326.123
302.165
300.162
300.012
300.001
300
300
300
300
300
300
300
300
300
300
300
300
300
300
300
300
300
)
;

boundaryField
{
    sides
    {
        type            zeroGradient;
    }
    empty
    {
        type            empty;
    }
}


// ************************************************************************* //
