/*--------------------------------*- C++ -*----------------------------------*\
| =========                 |                                                 |
| \\      /  F ield         | OpenFOAM: The Open Source CFD Toolbox           |
|  \\    /   O peration     | Version:  2312                                  |
|   \\  /    A nd           | Website:  www.openfoam.com                      |
|    \\/     M anipulation  |                                                 |
\*---------------------------------------------------------------------------*/
FoamFile
{
    version     2.0;
    format      ascii;
    arch        "LSB;label=32;scalar=64";
    class       volVectorField;
    location    "0.005";
    object      U;
}
// * * * * * * * * * * * * * * * * * * * * * * * * * * * * * * * * * * * * * //

dimensions      [0 1 -1 0 0 0 0];

internalField   nonuniform List<vector> 
100
(
(1.81902e-13 0 0)
(1.72066e-13 0 0)
(1.05599e-13 0 0)
(4.61682e-14 0 0)
(6.749e-14 0 0)
(8.99264e-14 0 0)
(5.47296e-14 0 0)
(-1.38333e-14 0 0)
(-5.77721e-14 0 0)
(-3.35293e-14 0 0)
(1.50761e-13 0 0)
(1.17151e-12 0 0)
(9.69218e-12 0 0)
(6.86514e-11 0 0)
(4.58868e-10 0 0)
(2.91429e-09 0 0)
(1.75924e-08 0 0)
(1.00866e-07 0 0)
(5.48609e-07 0 0)
(2.82695e-06 0 0)
(1.37802e-05 0 0)
(6.34352e-05 0 0)
(0.000275221 0 0)
(0.00112282 0 0)
(0.00429579 0 0)
(0.0153639 0 0)
(0.0511725 0 0)
(0.158009 0 0)
(0.449907 0 0)
(1.17419 0 0)
(2.79122 0 0)
(6.0097 0 0)
(11.6785 0 0)
(20.4858 0 0)
(32.6006 0 0)
(47.5558 0 0)
(64.5488 0 0)
(81.7528 0 0)
(98.6656 0 0)
(115.101 0 0)
(131.176 0 0)
(146.938 0 0)
(162.423 0 0)
(177.683 0 0)
(192.738 0 0)
(207.597 0 0)
(222.217 0 0)
(236.189 0 0)
(249.88 0 0)
(262.045 0 0)
(271.791 0 0)
(280.925 0 0)
(286.455 0 0)
(288.217 0 0)
(289.1 0 0)
(288.784 0 0)
(287.339 0 0)
(287.074 0 0)
(286.625 0 0)
(286.378 0 0)
(286.195 0 0)
(286.231 0 0)
(285.937 0 0)
(288.129 0 0)
(284.195 0 0)
(290.395 0 0)
(282.699 0 0)
(288.388 0 0)
(285.535 0 0)
(286.65 0 0)
(285.774 0 0)
(285.63 0 0)
(285.369 0 0)
(285.47 0 0)
(286.082 0 0)
(286.11 0 0)
(281.246 0 0)
(237.448 0 0)
(61.882 0 0)
(6.08184 0 0)
(0.481615 0 0)
(0.0373709 0 0)
(0.00286803 0 0)
(0.000218981 0 0)
(1.6645e-05 0 0)
(1.25947e-06 0 0)
(9.49654e-08 0 0)
(7.15575e-09 0 0)
(5.41477e-10 0 0)
(4.15123e-11 0 0)
(3.30186e-12 0 0)
(3.04072e-13 0 0)
(1.45461e-13 0 0)
(1.84896e-13 0 0)
(1.28031e-13 0 0)
(3.57835e-14 0 0)
(-3.19961e-14 0 0)
(4.07837e-14 0 0)
(1.04465e-13 0 0)
(6.03236e-14 0 0)
)
;

boundaryField
{
    sides
    {
        type            zeroGradient;
    }
    empty
    {
        type            empty;
    }
}


// ************************************************************************* //
