/*--------------------------------*- C++ -*----------------------------------*\
| =========                 |                                                 |
| \\      /  F ield         | OpenFOAM: The Open Source CFD Toolbox           |
|  \\    /   O peration     | Version:  2312                                  |
|   \\  /    A nd           | Website:  www.openfoam.com                      |
|    \\/     M anipulation  |                                                 |
\*---------------------------------------------------------------------------*/
FoamFile
{
    version     2.0;
    format      ascii;
    arch        "LSB;label=32;scalar=64";
    class       volScalarField;
    location    "0.077";
    object      p;
}
// * * * * * * * * * * * * * * * * * * * * * * * * * * * * * * * * * * * * * //

dimensions      [1 -1 -2 0 0 0 0];

internalField   nonuniform List<scalar> 
100
(
20447.5
21708.6
20566.2
21803.6
20885.6
21863
21203.3
21905.7
21490.1
21955.8
21730.8
22022.5
21924
22103.1
22076.4
22189.7
22197.1
22273.9
22293.8
22349.8
22371.3
22414
22432.3
22465.2
22478.5
22503.2
22510.9
22528.5
22530.7
22542
22539.2
22545.1
22538
22539.4
22528.9
22526.7
22513.8
22509.2
22495.1
22489.4
22476
22471.9
22463.5
22468.6
22478.8
22518
22592.2
22745.9
23017.3
23483.8
24194
25172.3
26333.5
27541.6
28622.3
29487.8
30098
30505.4
30745.6
30891.2
30959.6
30999
31003.7
31005.6
30988.9
30978.4
30955.1
30940.9
30915.9
30900.9
30875.9
30861.2
30836.3
30822.2
30797.6
30783.9
30759.8
30745.7
30722.6
30706.8
30685.8
30666.1
30648.5
30622.2
30609.6
30573.4
30567.6
30518.7
30520.7
30457.3
30467.3
30389.8
30406.8
30318.2
30340.2
30245.3
30269.9
30174.5
30199.6
30109.1
)
;

boundaryField
{
    sides
    {
        type            zeroGradient;
    }
    empty
    {
        type            empty;
    }
}


// ************************************************************************* //
