/*--------------------------------*- C++ -*----------------------------------*\
| =========                 |                                                 |
| \\      /  F ield         | OpenFOAM: The Open Source CFD Toolbox           |
|  \\    /   O peration     | Version:  2312                                  |
|   \\  /    A nd           | Website:  www.openfoam.com                      |
|    \\/     M anipulation  |                                                 |
\*---------------------------------------------------------------------------*/
FoamFile
{
    version     2.0;
    format      ascii;
    arch        "LSB;label=32;scalar=64";
    class       volScalarField;
    location    "0.077";
    object      T;
}
// * * * * * * * * * * * * * * * * * * * * * * * * * * * * * * * * * * * * * //

dimensions      [0 0 0 1 0 0 0];

internalField   nonuniform List<scalar> 
100
(
165.195
180.413
175.082
189.456
185.253
197.1
194.397
203.319
202.04
208.234
207.96
211.954
212.175
214.571
214.877
216.183
216.338
216.925
216.847
216.968
216.675
216.503
216.055
215.715
215.182
214.764
214.205
213.77
213.229
212.817
212.32
211.951
211.509
211.19
210.803
210.531
210.194
209.961
209.666
209.465
209.205
209.031
208.805
208.666
208.495
208.437
208.412
208.601
209.009
209.893
211.307
213.417
215.974
218.739
221.198
223.208
224.568
225.499
225.988
226.321
226.442
226.579
226.617
226.74
226.806
226.975
227.097
227.319
227.487
227.742
227.926
228.181
228.347
228.569
228.685
228.847
228.893
228.973
228.945
228.928
228.836
228.713
228.578
228.342
228.192
227.834
227.698
227.212
227.112
226.5
226.445
225.717
225.701
224.881
224.884
224.003
223.999
223.09
223.053
222.145
)
;

boundaryField
{
    sides
    {
        type            zeroGradient;
    }
    empty
    {
        type            empty;
    }
}


// ************************************************************************* //
