/*--------------------------------*- C++ -*----------------------------------*\
| =========                 |                                                 |
| \\      /  F ield         | OpenFOAM: The Open Source CFD Toolbox           |
|  \\    /   O peration     | Version:  2312                                  |
|   \\  /    A nd           | Website:  www.openfoam.com                      |
|    \\/     M anipulation  |                                                 |
\*---------------------------------------------------------------------------*/
FoamFile
{
    version     2.0;
    format      ascii;
    arch        "LSB;label=32;scalar=64";
    class       volScalarField;
    location    "0.077";
    object      thermo:e;
}
// * * * * * * * * * * * * * * * * * * * * * * * * * * * * * * * * * * * * * //

dimensions      [0 2 -2 0 0 0 0];

internalField   nonuniform List<scalar> 
100
(
118808
129753
125919
136257
133234
141754
139810
146227
145307
149762
149565
152438
152597
154320
154540
155479
155590
156012
155957
156043
155833
155709
155387
155142
154759
154458
154056
153743
153354
153058
152700
152435
152117
151888
151609
151414
151171
151004
150792
150647
150460
150335
150173
150072
149950
149908
149890
150026
150319
150955
151972
153490
155329
157317
159086
160531
161509
162179
162530
162770
162857
162956
162983
163071
163119
163241
163328
163488
163609
163792
163924
164108
164227
164387
164471
164587
164620
164677
164657
164645
164579
164490
164393
164223
164116
163858
163760
163411
163339
162899
162859
162336
162324
161734
161737
161103
161100
160447
160420
159767
)
;

boundaryField
{
    sides
    {
        type            zeroGradient;
    }
    empty
    {
        type            empty;
    }
}


// ************************************************************************* //
