/*--------------------------------*- C++ -*----------------------------------*\
| =========                 |                                                 |
| \\      /  F ield         | OpenFOAM: The Open Source CFD Toolbox           |
|  \\    /   O peration     | Version:  2312                                  |
|   \\  /    A nd           | Website:  www.openfoam.com                      |
|    \\/     M anipulation  |                                                 |
\*---------------------------------------------------------------------------*/
FoamFile
{
    version     2.0;
    format      ascii;
    arch        "LSB;label=32;scalar=64";
    class       volVectorField;
    location    "0.077";
    object      U;
}
// * * * * * * * * * * * * * * * * * * * * * * * * * * * * * * * * * * * * * //

dimensions      [0 1 -1 0 0 0 0];

internalField   nonuniform List<vector> 
100
(
(151.365 0 0)
(155.006 0 0)
(158.398 0 0)
(160.799 0 0)
(164.264 0 0)
(166.509 0 0)
(169.953 0 0)
(172.166 0 0)
(175.445 0 0)
(177.698 0 0)
(180.736 0 0)
(183.037 0 0)
(185.824 0 0)
(188.139 0 0)
(190.7 0 0)
(192.977 0 0)
(195.346 0 0)
(197.543 0 0)
(199.746 0 0)
(201.833 0 0)
(203.886 0 0)
(205.849 0 0)
(207.758 0 0)
(209.589 0 0)
(211.36 0 0)
(213.057 0 0)
(214.691 0 0)
(216.255 0 0)
(217.753 0 0)
(219.182 0 0)
(220.546 0 0)
(221.841 0 0)
(223.07 0 0)
(224.23 0 0)
(225.324 0 0)
(226.348 0 0)
(227.306 0 0)
(228.193 0 0)
(229.011 0 0)
(229.756 0 0)
(230.427 0 0)
(231.012 0 0)
(231.499 0 0)
(231.853 0 0)
(232.018 0 0)
(231.882 0 0)
(231.25 0 0)
(229.798 0 0)
(227.06 0 0)
(222.509 0 0)
(215.818 0 0)
(207.225 0 0)
(197.656 0 0)
(188.405 0 0)
(180.539 0 0)
(174.552 0 0)
(170.374 0 0)
(167.645 0 0)
(165.935 0 0)
(164.888 0 0)
(164.25 0 0)
(163.856 0 0)
(163.606 0 0)
(163.441 0 0)
(163.328 0 0)
(163.249 0 0)
(163.193 0 0)
(163.155 0 0)
(163.134 0 0)
(163.129 0 0)
(163.138 0 0)
(163.163 0 0)
(163.202 0 0)
(163.257 0 0)
(163.326 0 0)
(163.409 0 0)
(163.508 0 0)
(163.618 0 0)
(163.746 0 0)
(163.88 0 0)
(164.038 0 0)
(164.197 0 0)
(164.388 0 0)
(164.572 0 0)
(164.799 0 0)
(165.013 0 0)
(165.28 0 0)
(165.528 0 0)
(165.836 0 0)
(166.123 0 0)
(166.47 0 0)
(166.798 0 0)
(167.176 0 0)
(167.542 0 0)
(167.941 0 0)
(168.336 0 0)
(168.742 0 0)
(169.152 0 0)
(169.553 0 0)
(169.963 0 0)
)
;

boundaryField
{
    sides
    {
        type            mywaveTransmissive;
        gamma           1.4;
        value           nonuniform List<vector> 2((169.964 0 0) (154.878 0 0));
    }
    empty
    {
        type            empty;
    }
}


// ************************************************************************* //
