/*--------------------------------*- C++ -*----------------------------------*\
| =========                 |                                                 |
| \\      /  F ield         | OpenFOAM: The Open Source CFD Toolbox           |
|  \\    /   O peration     | Version:  2312                                  |
|   \\  /    A nd           | Website:  www.openfoam.com                      |
|    \\/     M anipulation  |                                                 |
\*---------------------------------------------------------------------------*/
FoamFile
{
    version     2.0;
    format      ascii;
    arch        "LSB;label=32;scalar=64";
    class       volScalarField;
    location    "0.003";
    object      p;
}
// * * * * * * * * * * * * * * * * * * * * * * * * * * * * * * * * * * * * * //

dimensions      [1 -1 -2 0 0 0 0];

internalField   nonuniform List<scalar> 
100
(
100000
100000
100000
100000
100000
99999.9
99999.8
99999.6
99999
99997.7
99994.9
99989.2
99977.7
99956
99916.4
99847.3
99731.7
99547
99264.2
98849.8
98268
97484
96468.3
95199.7
93668
91874.5
89831.2
87559.2
85085.9
82442.6
79661.8
76775.9
73815.8
70809.5
67782.5
64757
61752.5
58785.6
55870.5
53019.5
50242.8
47549.8
44948.5
42447.1
40053.8
37778.5
35634.6
33641.3
31830
30252.3
28991.5
28156.7
27791.9
27712.5
27687.6
27673.9
27666.1
27662.6
27662.3
27664.4
27668.3
27673.6
27679.8
27686.7
27694.1
27701.7
27709.6
27717.5
27725.6
27733.7
27742
27750.5
27759.1
27767.8
27776.1
27783.4
27788
27786.3
27770.7
27725.5
27619.3
27390.1
26922.1
26019.4
24407.6
21850.2
18451.5
14927.3
12266.2
10845.9
10277.9
10086.1
10026
10007.7
10002.3
10000.7
10000.2
10000.1
10000
10000
)
;

boundaryField
{
    sides
    {
        type            zeroGradient;
    }
    empty
    {
        type            empty;
    }
}


// ************************************************************************* //
