/*--------------------------------*- C++ -*----------------------------------*\
| =========                 |                                                 |
| \\      /  F ield         | OpenFOAM: The Open Source CFD Toolbox           |
|  \\    /   O peration     | Version:  2312                                  |
|   \\  /    A nd           | Website:  www.openfoam.com                      |
|    \\/     M anipulation  |                                                 |
\*---------------------------------------------------------------------------*/
FoamFile
{
    version     2.0;
    format      ascii;
    arch        "LSB;label=32;scalar=64";
    class       volScalarField;
    location    "0.003";
    object      p;
}
// * * * * * * * * * * * * * * * * * * * * * * * * * * * * * * * * * * * * * //

dimensions      [1 -1 -2 0 0 0 0];

internalField   nonuniform List<scalar> 
100
(
100000
100000
100000
100000
100000
100000
100000
100000
100000
100000
100000
100000
100000
100000
100000
100000
100000
100000
100000
100000
100000
100000
100000
100000
99999.9
99999.8
99999.2
99997.3
99991.8
99976.9
99939.4
99852.8
99668.6
99308.9
98664.1
97602.1
95990.3
93724.6
90754.7
87095.7
82822.4
78052.3
72925.4
67585.3
62167.3
56791.2
51560
46561.7
41875
37581.3
33792
30727.2
28940.4
28615.9
28582.2
28572.1
28566.5
28561.1
28551.1
28527.9
28475.2
28359.2
28107.6
27573.3
26495.3
24508.7
21359.1
17380.4
13702.5
11395.7
10421.3
10112.6
10028.2
10006.7
10001.5
10000.3
10000.1
10000
10000
10000
10000
10000
10000
10000
10000
10000
10000
10000
10000
10000
10000
10000
10000
10000
10000
10000
10000
10000
10000
10000
)
;

boundaryField
{
    sides
    {
        type            zeroGradient;
    }
    empty
    {
        type            empty;
    }
}


// ************************************************************************* //
