/*--------------------------------*- C++ -*----------------------------------*\
| =========                 |                                                 |
| \\      /  F ield         | OpenFOAM: The Open Source CFD Toolbox           |
|  \\    /   O peration     | Version:  2312                                  |
|   \\  /    A nd           | Website:  www.openfoam.com                      |
|    \\/     M anipulation  |                                                 |
\*---------------------------------------------------------------------------*/
FoamFile
{
    version     2.0;
    format      ascii;
    arch        "LSB;label=32;scalar=64";
    class       volScalarField;
    location    "0.003";
    object      rho;
}
// * * * * * * * * * * * * * * * * * * * * * * * * * * * * * * * * * * * * * //

dimensions      [1 -3 0 0 0 0 0];

internalField   nonuniform List<scalar> 
100
(
0.280635
0.280635
0.280635
0.280635
0.280635
0.280635
0.280635
0.280635
0.280634
0.280631
0.280627
0.280617
0.280598
0.280561
0.280494
0.280378
0.280183
0.279871
0.279393
0.278691
0.277703
0.276366
0.274626
0.272441
0.269784
0.266647
0.26304
0.258987
0.254523
0.24969
0.244535
0.239105
0.233448
0.227606
0.22162
0.215528
0.209362
0.203154
0.19693
0.190716
0.184533
0.178403
0.172349
0.166393
0.16056
0.154882
0.149402
0.144182
0.13932
0.134973
0.131394
0.128907
0.127651
0.127106
0.1266
0.125949
0.125044
0.123741
0.121865
0.119231
0.115693
0.111192
0.105795
0.0996973
0.0931898
0.0866026
0.0802471
0.0743737
0.069152
0.0646703
0.0609479
0.057952
0.0556154
0.0538506
0.052562
0.0516539
0.0510366
0.0506294
0.0503605
0.0501634
0.049967
0.0496779
0.0491521
0.0481592
0.0463721
0.0434702
0.03946
0.0350566
0.0314769
0.0294063
0.0285196
0.028207
0.0281071
0.0280765
0.0280673
0.0280646
0.0280638
0.0280636
0.0280635
0.0280635
)
;

boundaryField
{
    sides
    {
        type            calculated;
        value           nonuniform List<scalar> 2(0.0280635 0.280635);
    }
    empty
    {
        type            empty;
    }
}


// ************************************************************************* //
