/*--------------------------------*- C++ -*----------------------------------*\
| =========                 |                                                 |
| \\      /  F ield         | OpenFOAM: The Open Source CFD Toolbox           |
|  \\    /   O peration     | Version:  2212                                  |
|   \\  /    A nd           | Website:  www.openfoam.com                      |
|    \\/     M anipulation  |                                                 |
\*---------------------------------------------------------------------------*/
FoamFile
{
    version     2.0;
    format      ascii;
    arch        "LSB;label=32;scalar=64";
    class       volScalarField;
    location    "0.003";
    object      rho;
}
// * * * * * * * * * * * * * * * * * * * * * * * * * * * * * * * * * * * * * //

dimensions      [1 -3 0 0 0 0 0];

internalField   nonuniform List<scalar> 
100
(
1.16103
1.16103
1.16103
1.16103
1.16103
1.16103
1.16103
1.16103
1.16103
1.16103
1.16103
1.16103
1.16103
1.16103
1.16103
1.16103
1.16103
1.16103
1.16103
1.16103
1.16103
1.16103
1.16103
1.16103
1.16103
1.16103
1.16102
1.16101
1.16096
1.16084
1.16053
1.15982
1.15829
1.1553
1.14992
1.14101
1.12739
1.1081
1.08256
1.0507
1.01295
0.970076
0.923088
0.87306
0.821059
0.768091
0.715085
0.662915
0.612452
0.564687
0.521019
0.4841
0.460071
0.449591
0.437889
0.420641
0.397498
0.37
0.340895
0.313092
0.288777
0.268986
0.253529
0.241041
0.22903
0.214131
0.193485
0.167751
0.143092
0.126726
0.119405
0.116993
0.116325
0.116155
0.116115
0.116105
0.116103
0.116103
0.116103
0.116103
0.116103
0.116103
0.116103
0.116103
0.116103
0.116103
0.116103
0.116103
0.116103
0.116103
0.116103
0.116103
0.116103
0.116103
0.116103
0.116103
0.116103
0.116103
0.116103
0.116103
)
;

boundaryField
{
    sides
    {
        type            calculated;
        value           nonuniform List<scalar> 2(0.116103 1.16103);
    }
    empty
    {
        type            empty;
    }
}


// ************************************************************************* //
