/*--------------------------------*- C++ -*----------------------------------*\
| =========                 |                                                 |
| \\      /  F ield         | OpenFOAM: The Open Source CFD Toolbox           |
|  \\    /   O peration     | Version:  2312                                  |
|   \\  /    A nd           | Website:  www.openfoam.com                      |
|    \\/     M anipulation  |                                                 |
\*---------------------------------------------------------------------------*/
FoamFile
{
    version     2.0;
    format      ascii;
    arch        "LSB;label=32;scalar=64";
    class       volScalarField;
    location    "0.003";
    object      rho;
}
// * * * * * * * * * * * * * * * * * * * * * * * * * * * * * * * * * * * * * //

dimensions      [1 -3 0 0 0 0 0];

internalField   nonuniform List<scalar> 
100
(
1.15862
1.15862
1.15862
1.15862
1.15862
1.15862
1.15862
1.15862
1.15862
1.15862
1.15862
1.15862
1.15862
1.15862
1.15862
1.15862
1.15862
1.15862
1.15862
1.15862
1.15862
1.15862
1.15862
1.15862
1.15862
1.15862
1.15862
1.1586
1.15855
1.15843
1.15812
1.1574
1.15588
1.15289
1.14752
1.13864
1.12508
1.10586
1.08041
1.04865
1.01098
0.968173
0.921228
0.871223
0.819228
0.766255
0.71324
0.661058
0.610582
0.562791
0.519063
0.482001
0.457746
0.447354
0.435967
0.419148
0.396507
0.369508
0.340823
0.31332
0.28918
0.269458
0.253989
0.241434
0.229322
0.214309
0.193567
0.167777
0.143076
0.126639
0.119241
0.116783
0.116095
0.115918
0.115875
0.115865
0.115863
0.115862
0.115862
0.115862
0.115862
0.115862
0.115862
0.115862
0.115862
0.115862
0.115862
0.115862
0.115862
0.115862
0.115862
0.115862
0.115862
0.115862
0.115862
0.115862
0.115862
0.115862
0.115862
0.115862
)
;

boundaryField
{
    sides
    {
        type            calculated;
        value           nonuniform List<scalar> 2(0.115862 1.15862);
    }
    empty
    {
        type            empty;
    }
}


// ************************************************************************* //
