/*--------------------------------*- C++ -*----------------------------------*\
| =========                 |                                                 |
| \\      /  F ield         | OpenFOAM: The Open Source CFD Toolbox           |
|  \\    /   O peration     | Version:  2312                                  |
|   \\  /    A nd           | Website:  www.openfoam.com                      |
|    \\/     M anipulation  |                                                 |
\*---------------------------------------------------------------------------*/
FoamFile
{
    version     2.0;
    format      ascii;
    arch        "LSB;label=32;scalar=64";
    class       volScalarField;
    location    "0.003";
    object      T;
}
// * * * * * * * * * * * * * * * * * * * * * * * * * * * * * * * * * * * * * //

dimensions      [0 0 0 1 0 0 0];

internalField   nonuniform List<scalar> 
100
(
300
300
300
300
300
300
300
300
299.999
299.997
299.994
299.987
299.973
299.947
299.9
299.817
299.678
299.456
299.116
298.618
297.917
296.97
295.737
294.189
292.307
290.082
287.52
284.635
281.446
277.98
274.266
270.333
266.209
261.922
257.497
252.957
248.324
243.617
238.854
234.052
229.226
224.393
219.568
214.771
210.024
205.356
200.806
196.437
192.348
188.701
185.763
183.895
183.298
183.558
184.127
184.985
186.272
188.21
191.105
195.341
201.344
209.534
220.273
233.804
250.197
269.302
290.712
313.76
337.551
361.05
383.216
403.149
420.218
434.124
444.901
452.842
458.394
462.052
464.258
465.325
465.365
464.187
461.138
454.864
443.13
423.183
393.675
358.489
328.081
310.518
303.406
301.043
300.313
300.093
300.027
300.008
300.002
300.001
300
300
)
;

boundaryField
{
    sides
    {
        type            zeroGradient;
    }
    empty
    {
        type            empty;
    }
}


// ************************************************************************* //
