/*--------------------------------*- C++ -*----------------------------------*\
| =========                 |                                                 |
| \\      /  F ield         | OpenFOAM: The Open Source CFD Toolbox           |
|  \\    /   O peration     | Version:  2212                                  |
|   \\  /    A nd           | Website:  www.openfoam.com                      |
|    \\/     M anipulation  |                                                 |
\*---------------------------------------------------------------------------*/
FoamFile
{
    version     2.0;
    format      ascii;
    arch        "LSB;label=32;scalar=64";
    class       volScalarField;
    location    "0.003";
    object      thermo:psi;
}
// * * * * * * * * * * * * * * * * * * * * * * * * * * * * * * * * * * * * * //

dimensions      [0 -2 2 0 0 0 0];

internalField   nonuniform List<scalar> 
100
(
1.16103e-05
1.16103e-05
1.16103e-05
1.16103e-05
1.16103e-05
1.16103e-05
1.16103e-05
1.16103e-05
1.16103e-05
1.16103e-05
1.16103e-05
1.16103e-05
1.16103e-05
1.16103e-05
1.16103e-05
1.16103e-05
1.16103e-05
1.16103e-05
1.16103e-05
1.16103e-05
1.16103e-05
1.16103e-05
1.16103e-05
1.16103e-05
1.16103e-05
1.16103e-05
1.16103e-05
1.16104e-05
1.16105e-05
1.1611e-05
1.16123e-05
1.16152e-05
1.16214e-05
1.16335e-05
1.16554e-05
1.16918e-05
1.17476e-05
1.18277e-05
1.19357e-05
1.2074e-05
1.2244e-05
1.24457e-05
1.26787e-05
1.29422e-05
1.32351e-05
1.35562e-05
1.39037e-05
1.42752e-05
1.46664e-05
1.50681e-05
1.54598e-05
1.57889e-05
1.59152e-05
1.57226e-05
1.53305e-05
1.47309e-05
1.39226e-05
1.29618e-05
1.19465e-05
1.09812e-05
1.01469e-05
9.48933e-06
9.02226e-06
8.74109e-06
8.63968e-06
8.72925e-06
9.05106e-06
9.65063e-06
1.04527e-05
1.11347e-05
1.14667e-05
1.1573e-05
1.16011e-05
1.16081e-05
1.16098e-05
1.16102e-05
1.16103e-05
1.16103e-05
1.16103e-05
1.16103e-05
1.16103e-05
1.16103e-05
1.16103e-05
1.16103e-05
1.16103e-05
1.16103e-05
1.16103e-05
1.16103e-05
1.16103e-05
1.16103e-05
1.16103e-05
1.16103e-05
1.16103e-05
1.16103e-05
1.16103e-05
1.16103e-05
1.16103e-05
1.16103e-05
1.16103e-05
1.16103e-05
)
;

boundaryField
{
    sides
    {
        type            calculated;
        value           uniform 1.16103e-05;
    }
    empty
    {
        type            empty;
    }
}


// ************************************************************************* //
