/*--------------------------------*- C++ -*----------------------------------*\
| =========                 |                                                 |
| \\      /  F ield         | OpenFOAM: The Open Source CFD Toolbox           |
|  \\    /   O peration     | Version:  2312                                  |
|   \\  /    A nd           | Website:  www.openfoam.com                      |
|    \\/     M anipulation  |                                                 |
\*---------------------------------------------------------------------------*/
FoamFile
{
    version     2.0;
    format      ascii;
    arch        "LSB;label=32;scalar=64";
    class       volVectorField;
    location    "0.003";
    object      U;
}
// * * * * * * * * * * * * * * * * * * * * * * * * * * * * * * * * * * * * * //

dimensions      [0 1 -1 0 0 0 0];

internalField   nonuniform List<vector> 
100
(
(1.5457e-06 0 0)
(4.76856e-06 0 0)
(1.41934e-05 0 0)
(4.07522e-05 0 0)
(0.000112849 0 0)
(0.00030133 0 0)
(0.000775673 0 0)
(0.00192442 0 0)
(0.0046003 0 0)
(0.0105928 0 0)
(0.0234873 0 0)
(0.0501321 0 0)
(0.102971 0 0)
(0.203469 0 0)
(0.386681 0 0)
(0.706644 0 0)
(1.24174 0 0)
(2.09854 0 0)
(3.41234 0 0)
(5.34285 0 0)
(8.06446 0 0)
(11.7521 0 0)
(16.5654 0 0)
(22.6344 0 0)
(30.0491 0 0)
(38.8559 0 0)
(49.0584 0 0)
(60.624 0 0)
(73.4915 0 0)
(87.5805 0 0)
(102.799 0 0)
(119.051 0 0)
(136.24 0 0)
(154.274 0 0)
(173.067 0 0)
(192.538 0 0)
(212.613 0 0)
(233.225 0 0)
(254.311 0 0)
(275.811 0 0)
(297.666 0 0)
(319.817 0 0)
(342.197 0 0)
(364.729 0 0)
(387.317 0 0)
(409.83 0 0)
(432.074 0 0)
(453.754 0 0)
(474.384 0 0)
(493.155 0 0)
(508.751 0 0)
(519.41 0 0)
(524.191 0 0)
(525.298 0 0)
(525.704 0 0)
(525.971 0 0)
(526.169 0 0)
(526.32 0 0)
(526.441 0 0)
(526.54 0 0)
(526.627 0 0)
(526.708 0 0)
(526.787 0 0)
(526.868 0 0)
(526.953 0 0)
(527.046 0 0)
(527.148 0 0)
(527.259 0 0)
(527.38 0 0)
(527.512 0 0)
(527.656 0 0)
(527.81 0 0)
(527.973 0 0)
(528.142 0 0)
(528.307 0 0)
(528.452 0 0)
(528.542 0 0)
(528.5 0 0)
(528.17 0 0)
(527.227 0 0)
(525.009 0 0)
(520.203 0 0)
(510.301 0 0)
(490.81 0 0)
(454.64 0 0)
(393.188 0 0)
(302.156 0 0)
(192.874 0 0)
(96.2883 0 0)
(37.8254 0 0)
(12.7058 0 0)
(3.96591 0 0)
(1.19949 0 0)
(0.35666 0 0)
(0.104637 0 0)
(0.0302901 0 0)
(0.00864212 0 0)
(0.00242675 0 0)
(0.000669666 0 0)
(0.000181331 0 0)
)
;

boundaryField
{
    sides
    {
        type            zeroGradient;
    }
    empty
    {
        type            empty;
    }
}


// ************************************************************************* //
