/*--------------------------------*- C++ -*----------------------------------*\
| =========                 |                                                 |
| \\      /  F ield         | OpenFOAM: The Open Source CFD Toolbox           |
|  \\    /   O peration     | Version:  2212                                  |
|   \\  /    A nd           | Website:  www.openfoam.com                      |
|    \\/     M anipulation  |                                                 |
\*---------------------------------------------------------------------------*/
FoamFile
{
    version     2.0;
    format      ascii;
    arch        "LSB;label=32;scalar=64";
    class       volVectorField;
    location    "0.003";
    object      U;
}
// * * * * * * * * * * * * * * * * * * * * * * * * * * * * * * * * * * * * * //

dimensions      [0 1 -1 0 0 0 0];

internalField   nonuniform List<vector> 
100
(
(2.97932e-14 0 0)
(5.53265e-14 0 0)
(6.22734e-14 0 0)
(1.09636e-13 0 0)
(9.18596e-14 0 0)
(1.27982e-13 0 0)
(1.43322e-13 0 0)
(7.66025e-14 0 0)
(-2.57117e-14 0 0)
(-2.81578e-14 0 0)
(-1.06049e-15 0 0)
(-5.2413e-14 0 0)
(3.07338e-14 0 0)
(7.57177e-14 0 0)
(8.47155e-14 0 0)
(4.68084e-14 0 0)
(1.15558e-14 0 0)
(3.16889e-14 0 0)
(1.63211e-14 0 0)
(2.50153e-14 0 0)
(3.41253e-16 0 0)
(-6.42136e-14 0 0)
(-8.63606e-14 0 0)
(1.66176e-14 0 0)
(5.43689e-14 0 0)
(2.94154e-14 0 0)
(-2.02263e-15 0 0)
(-9.00456e-15 0 0)
(-6.33034e-15 0 0)
(-1.15853e-15 0 0)
(-5.94033e-14 0 0)
(-2.0681e-14 0 0)
(-2.91219e-14 0 0)
(-4.84109e-14 0 0)
(-1.46164e-14 0 0)
(1.14391e-10 0 0)
(5.74831e-06 0 0)
(0.0104901 0 0)
(0.941581 0 0)
(10.427 0 0)
(33.7021 0 0)
(60.6593 0 0)
(85.942 0 0)
(109.965 0 0)
(133.61 0 0)
(157.382 0 0)
(181.454 0 0)
(205.952 0 0)
(230.953 0 0)
(255.075 0 0)
(277.208 0 0)
(289.989 0 0)
(283.041 0 0)
(282.941 0 0)
(284.397 0 0)
(285.366 0 0)
(285.338 0 0)
(284.578 0 0)
(285.28 0 0)
(289.934 0 0)
(283.796 0 0)
(276.316 0 0)
(277.968 0 0)
(282.445 0 0)
(293.123 0 0)
(293.296 0 0)
(235.035 0 0)
(37.3463 0 0)
(0.072751 0 0)
(2.61395e-07 0 0)
(4.36606e-13 0 0)
(-4.60178e-14 0 0)
(2.627e-14 0 0)
(3.57485e-14 0 0)
(8.94602e-15 0 0)
(-6.11429e-14 0 0)
(-7.01663e-14 0 0)
(-2.24168e-14 0 0)
(-4.24303e-14 0 0)
(1.38573e-14 0 0)
(6.84156e-14 0 0)
(7.12707e-14 0 0)
(2.45692e-14 0 0)
(-2.2762e-14 0 0)
(-3.90238e-14 0 0)
(-1.72283e-14 0 0)
(-2.37096e-14 0 0)
(-4.26451e-14 0 0)
(-9.14891e-14 0 0)
(-1.22925e-13 0 0)
(-2.31188e-14 0 0)
(6.57582e-14 0 0)
(1.9723e-14 0 0)
(-1.62634e-15 0 0)
(-8.42374e-14 0 0)
(-7.16391e-14 0 0)
(-1.52159e-14 0 0)
(-1.03714e-13 0 0)
(-7.26806e-14 0 0)
(-9.94154e-14 0 0)
)
;

boundaryField
{
    sides
    {
        type            zeroGradient;
    }
    empty
    {
        type            empty;
    }
}


// ************************************************************************* //
