/*--------------------------------*- C++ -*----------------------------------*\
| =========                 |                                                 |
| \\      /  F ield         | OpenFOAM: The Open Source CFD Toolbox           |
|  \\    /   O peration     | Version:  2212                                  |
|   \\  /    A nd           | Website:  www.openfoam.com                      |
|    \\/     M anipulation  |                                                 |
\*---------------------------------------------------------------------------*/
FoamFile
{
    version     2.0;
    format      ascii;
    arch        "LSB;label=32;scalar=64";
    class       volVectorField;
    location    "0.003";
    object      U;
}
// * * * * * * * * * * * * * * * * * * * * * * * * * * * * * * * * * * * * * //

dimensions      [0 1 -1 0 0 0 0];

internalField   nonuniform List<vector> 
100
(
(6.9974e-14 0 0)
(3.60531e-14 0 0)
(4.24637e-14 0 0)
(7.24454e-14 0 0)
(4.16817e-14 0 0)
(3.50744e-14 0 0)
(6.69264e-14 0 0)
(1.74956e-14 0 0)
(4.80229e-15 0 0)
(1.30611e-14 0 0)
(-1.05986e-14 0 0)
(-5.04173e-14 0 0)
(-3.57822e-14 0 0)
(3.82837e-13 0 0)
(3.88312e-12 0 0)
(3.14039e-11 0 0)
(2.31864e-10 0 0)
(1.58725e-09 0 0)
(1.00903e-08 0 0)
(5.96026e-08 0 0)
(3.2729e-07 0 0)
(1.67133e-06 0 0)
(7.93857e-06 0 0)
(3.50755e-05 0 0)
(0.00014415 0 0)
(0.000550906 0 0)
(0.0019572 0 0)
(0.0064605 0 0)
(0.0198009 0 0)
(0.0563065 0 0)
(0.148434 0 0)
(0.362488 0 0)
(0.819696 0 0)
(1.71672 0 0)
(3.33393 0 0)
(6.01894 0 0)
(10.142 0 0)
(16.0355 0 0)
(23.9405 0 0)
(33.9791 0 0)
(46.1577 0 0)
(60.3911 0 0)
(76.5342 0 0)
(94.4102 0 0)
(113.829 0 0)
(134.597 0 0)
(156.509 0 0)
(179.336 0 0)
(202.778 0 0)
(226.373 0 0)
(249.25 0 0)
(269.436 0 0)
(281.963 0 0)
(284.362 0 0)
(284.712 0 0)
(284.886 0 0)
(285.017 0 0)
(285.105 0 0)
(285.122 0 0)
(284.998 0 0)
(284.581 0 0)
(283.53 0 0)
(281.089 0 0)
(275.662 0 0)
(264.219 0 0)
(241.78 0 0)
(202.492 0 0)
(144.834 0 0)
(80.5265 0 0)
(32.5653 0 0)
(10.0792 0 0)
(2.69125 0 0)
(0.6676 0 0)
(0.157587 0 0)
(0.0355424 0 0)
(0.00764846 0 0)
(0.00156624 0 0)
(0.000304377 0 0)
(5.59918e-05 0 0)
(9.72693e-06 0 0)
(1.59233e-06 0 0)
(2.4515e-07 0 0)
(3.54288e-08 0 0)
(4.7975e-09 0 0)
(6.07523e-10 0 0)
(7.16947e-11 0 0)
(7.7371e-12 0 0)
(6.31228e-13 0 0)
(-8.17693e-14 0 0)
(-1.73225e-13 0 0)
(-2.20559e-13 0 0)
(-2.44136e-13 0 0)
(-1.57831e-13 0 0)
(-1.4762e-13 0 0)
(-1.69871e-13 0 0)
(-1.94601e-13 0 0)
(-1.88289e-13 0 0)
(-1.75163e-13 0 0)
(-1.17938e-13 0 0)
(-6.04488e-14 0 0)
)
;

boundaryField
{
    sides
    {
        type            zeroGradient;
    }
    empty
    {
        type            empty;
    }
}


// ************************************************************************* //
