/*--------------------------------*- C++ -*----------------------------------*\
| =========                 |                                                 |
| \\      /  F ield         | OpenFOAM: The Open Source CFD Toolbox           |
|  \\    /   O peration     | Version:  2312                                  |
|   \\  /    A nd           | Website:  www.openfoam.com                      |
|    \\/     M anipulation  |                                                 |
\*---------------------------------------------------------------------------*/
FoamFile
{
    version     2.0;
    format      ascii;
    arch        "LSB;label=32;scalar=64";
    class       volVectorField;
    location    "0.003";
    object      U;
}
// * * * * * * * * * * * * * * * * * * * * * * * * * * * * * * * * * * * * * //

dimensions      [0 1 -1 0 0 0 0];

internalField   nonuniform List<vector> 
100
(
(-5.1321e-14 0 0)
(-8.72241e-14 0 0)
(-7.45308e-14 0 0)
(-3.36241e-14 0 0)
(-4.99819e-14 0 0)
(-1.21041e-13 0 0)
(-6.94781e-14 0 0)
(-4.80461e-14 0 0)
(1.79546e-15 0 0)
(1.19619e-14 0 0)
(-1.7709e-14 0 0)
(-2.74293e-14 0 0)
(-8.86726e-16 0 0)
(5.43133e-13 0 0)
(5.06108e-12 0 0)
(3.95989e-11 0 0)
(2.84899e-10 0 0)
(1.90473e-09 0 0)
(1.18462e-08 0 0)
(6.85801e-08 0 0)
(3.69711e-07 0 0)
(1.85645e-06 0 0)
(8.68389e-06 0 0)
(3.784e-05 0 0)
(0.000153578 0 0)
(0.000580394 0 0)
(0.00204149 0 0)
(0.00667966 0 0)
(0.0203159 0 0)
(0.0573902 0 0)
(0.150447 0 0)
(0.365707 0 0)
(0.823909 0 0)
(1.7206 0 0)
(3.33446 0 0)
(6.01135 0 0)
(10.1205 0 0)
(15.9951 0 0)
(23.8784 0 0)
(33.8966 0 0)
(46.0603 0 0)
(60.288 0 0)
(76.4377 0 0)
(94.334 0 0)
(113.788 0 0)
(134.606 0 0)
(156.582 0 0)
(179.489 0 0)
(203.028 0 0)
(226.742 0 0)
(249.775 0 0)
(270.185 0 0)
(282.998 0 0)
(285.492 0 0)
(285.851 0 0)
(286.034 0 0)
(286.166 0 0)
(286.246 0 0)
(286.245 0 0)
(286.093 0 0)
(285.634 0 0)
(284.521 0 0)
(281.992 0 0)
(276.445 0 0)
(264.852 0 0)
(242.269 0 0)
(202.913 0 0)
(145.311 0 0)
(81.0788 0 0)
(33.0124 0 0)
(10.314 0 0)
(2.78461 0 0)
(0.699486 0 0)
(0.167417 0 0)
(0.038322 0 0)
(0.00837416 0 0)
(0.00174198 0 0)
(0.000343999 0 0)
(6.43323e-05 0 0)
(1.13694e-05 0 0)
(1.89524e-06 0 0)
(2.97482e-07 0 0)
(4.38959e-08 0 0)
(6.07944e-09 0 0)
(7.89012e-10 0 0)
(9.58487e-11 0 0)
(1.09635e-11 0 0)
(1.2307e-12 0 0)
(1.70522e-13 0 0)
(7.73858e-14 0 0)
(9.6111e-14 0 0)
(9.62517e-14 0 0)
(1.97435e-13 0 0)
(2.16803e-13 0 0)
(1.65957e-13 0 0)
(1.07292e-13 0 0)
(7.84089e-14 0 0)
(3.1601e-14 0 0)
(2.28753e-14 0 0)
(-3.17712e-14 0 0)
)
;

boundaryField
{
    sides
    {
        type            zeroGradient;
    }
    empty
    {
        type            empty;
    }
}


// ************************************************************************* //
