/*--------------------------------*- C++ -*----------------------------------*\
| =========                 |                                                 |
| \\      /  F ield         | OpenFOAM: The Open Source CFD Toolbox           |
|  \\    /   O peration     | Version:  2312                                  |
|   \\  /    A nd           | Website:  www.openfoam.com                      |
|    \\/     M anipulation  |                                                 |
\*---------------------------------------------------------------------------*/
FoamFile
{
    version     2.0;
    format      ascii;
    arch        "LSB;label=32;scalar=64";
    class       volScalarField;
    location    "0.008";
    object      p;
}
// * * * * * * * * * * * * * * * * * * * * * * * * * * * * * * * * * * * * * //

dimensions      [1 -1 -2 0 0 0 0];

internalField   nonuniform List<scalar> 
100
(
100207
100207
100207
100207
100207
100207
100207
100207
100207
100207
100207
100207
100206
100205
100200
100189
100159
100087
99927.8
99600.7
98983.8
97923.7
96274.5
93957
91008.6
87580.3
83872.3
80077.9
76439.9
73027.8
69821.6
66785.2
63901.1
61152.6
58528.8
56022
53624.8
51330.8
49135
47031.8
45015.9
43082.6
41229.1
39454.6
37761.2
36156.2
34640.8
33265.2
31941.2
30722.3
29867.1
29106.4
28340.4
28090.3
28133.2
28148
28413.1
28383.7
28358.5
28405.3
28478.2
28547.1
28588
28557.8
28486.9
28445.1
28422.1
28460.3
28542.3
28586.5
28633.6
28501.8
28705.9
27912.8
29216.3
28173.2
28730.5
28457.8
28583.4
28552.1
28569.8
28552.5
28551.7
28554.5
28567.4
28584.4
28608.5
28596.3
28599.6
28593.4
28593.6
28581.1
28488.8
27728.9
21141
11564.4
10147.5
10030.6
10021.5
10020.8
)
;

boundaryField
{
    sides
    {
        type            zeroGradient;
    }
    empty
    {
        type            empty;
    }
}


// ************************************************************************* //
