/*--------------------------------*- C++ -*----------------------------------*\
| =========                 |                                                 |
| \\      /  F ield         | OpenFOAM: The Open Source CFD Toolbox           |
|  \\    /   O peration     | Version:  2312                                  |
|   \\  /    A nd           | Website:  www.openfoam.com                      |
|    \\/     M anipulation  |                                                 |
\*---------------------------------------------------------------------------*/
FoamFile
{
    version     2.0;
    format      ascii;
    arch        "LSB;label=32;scalar=64";
    class       volScalarField;
    location    "0.008";
    object      rho;
}
// * * * * * * * * * * * * * * * * * * * * * * * * * * * * * * * * * * * * * //

dimensions      [1 -3 0 0 0 0 0];

internalField   nonuniform List<scalar> 
100
(
1.16102
1.16102
1.16102
1.16102
1.16102
1.16102
1.16102
1.16102
1.16102
1.16102
1.16102
1.16102
1.16101
1.161
1.16097
1.16087
1.16062
1.16003
1.15871
1.156
1.15088
1.14206
1.1283
1.10884
1.08391
1.05463
1.02258
0.98934
0.95705
0.926391
0.897196
0.86919
0.842245
0.81624
0.791098
0.766774
0.743216
0.720389
0.698261
0.676799
0.655967
0.635734
0.61609
0.597047
0.578649
0.560992
0.5441
0.528579
0.513423
0.499301
0.489542
0.48106
0.471665
0.468079
0.46845
0.469071
0.47286
0.47275
0.472177
0.471895
0.47202
0.472846
0.473688
0.474126
0.473968
0.473375
0.472264
0.470014
0.464699
0.45305
0.432868
0.400224
0.360498
0.307662
0.280002
0.252654
0.245818
0.239185
0.237687
0.2366
0.236407
0.236249
0.236274
0.236401
0.23668
0.237044
0.237408
0.237465
0.237569
0.237609
0.237681
0.237663
0.237162
0.232624
0.191334
0.127513
0.117121
0.116184
0.116108
0.116102
)
;

boundaryField
{
    sides
    {
        type            zeroGradient;
    }
    empty
    {
        type            empty;
    }
}


// ************************************************************************* //
