/*--------------------------------*- C++ -*----------------------------------*\
| =========                 |                                                 |
| \\      /  F ield         | OpenFOAM: The Open Source CFD Toolbox           |
|  \\    /   O peration     | Version:  2312                                  |
|   \\  /    A nd           | Website:  www.openfoam.com                      |
|    \\/     M anipulation  |                                                 |
\*---------------------------------------------------------------------------*/
FoamFile
{
    version     2.0;
    format      ascii;
    arch        "LSB;label=32;scalar=64";
    class       volScalarField;
    location    "0.008";
    object      T;
}
// * * * * * * * * * * * * * * * * * * * * * * * * * * * * * * * * * * * * * //

dimensions      [0 0 0 1 0 0 0];

internalField   nonuniform List<scalar> 
100
(
300
300
300
300
300
300
300
300
300
300
300
300
299.999
299.998
299.994
299.984
299.959
299.897
299.761
299.48
298.949
298.031
296.587
294.525
291.846
288.65
285.092
281.339
277.619
274.004
270.499
267.072
263.714
260.412
257.159
253.954
250.792
247.671
244.589
241.544
238.533
235.554
232.607
229.696
226.827
224.021
221.296
218.748
216.241
213.872
212.064
210.306
208.85
208.593
208.747
208.58
208.857
208.689
208.758
209.227
209.708
209.848
209.776
209.361
208.91
208.865
209.187
210.471
213.491
219.32
229.924
247.532
276.779
315.35
362.683
387.59
406.249
413.551
417.996
419.455
420.06
420.085
420.029
419.844
419.54
419.144
418.854
418.575
418.441
418.28
418.155
418.005
417.533
414.326
384.058
315.231
301.152
300.086
300.007
300.001
)
;

boundaryField
{
    sides
    {
        type            zeroGradient;
    }
    empty
    {
        type            empty;
    }
}


// ************************************************************************* //
