/*--------------------------------*- C++ -*----------------------------------*\
| =========                 |                                                 |
| \\      /  F ield         | OpenFOAM: The Open Source CFD Toolbox           |
|  \\    /   O peration     | Version:  2312                                  |
|   \\  /    A nd           | Website:  www.openfoam.com                      |
|    \\/     M anipulation  |                                                 |
\*---------------------------------------------------------------------------*/
FoamFile
{
    version     2.0;
    format      ascii;
    arch        "LSB;label=32;scalar=64";
    class       volScalarField;
    location    "0.008";
    object      thermo:e;
}
// * * * * * * * * * * * * * * * * * * * * * * * * * * * * * * * * * * * * * //

dimensions      [0 2 -2 0 0 0 0];

internalField   nonuniform List<scalar> 
100
(
215760
215760
215760
215760
215760
215760
215760
215760
215760
215760
215760
215760
215760
215759
215756
215749
215730
215686
215588
215386
215004
214344
213305
211822
209896
207597
205038
202339
199663
197064
194543
192078
189663
187288
184949
182644
180369
178125
175908
173718
171553
169410
167291
165197
163134
161116
159156
157323
155521
153817
152516
151252
150205
150020
150131
150011
150210
150089
150138
150476
150822
150923
150871
150572
150248
150215
150447
151371
153543
157735
165361
178025
199059
226800
260842
278755
292174
297426
300623
301672
302107
302125
302085
301952
301733
301448
301240
301039
300943
300827
300737
300629
300290
297983
276214
226714
216589
215822
215765
215760
)
;

boundaryField
{
    sides
    {
        type            zeroGradient;
    }
    empty
    {
        type            empty;
    }
}


// ************************************************************************* //
