/*--------------------------------*- C++ -*----------------------------------*\
| =========                 |                                                 |
| \\      /  F ield         | OpenFOAM: The Open Source CFD Toolbox           |
|  \\    /   O peration     | Version:  2312                                  |
|   \\  /    A nd           | Website:  www.openfoam.com                      |
|    \\/     M anipulation  |                                                 |
\*---------------------------------------------------------------------------*/
FoamFile
{
    version     2.0;
    format      ascii;
    arch        "LSB;label=32;scalar=64";
    class       volVectorField;
    location    "0.008";
    object      U;
}
// * * * * * * * * * * * * * * * * * * * * * * * * * * * * * * * * * * * * * //

dimensions      [0 1 -1 0 0 0 0];

internalField   nonuniform List<vector> 
100
(
(7.78244e-11 0 0)
(4.71994e-10 0 0)
(2.26162e-09 0 0)
(1.05775e-08 0 0)
(4.76873e-08 0 0)
(2.07091e-07 0 0)
(8.65495e-07 0 0)
(3.47764e-06 0 0)
(1.34199e-05 0 0)
(4.96741e-05 0 0)
(0.000176131 0 0)
(0.00059731 0 0)
(0.00193401 0 0)
(0.00596673 0 0)
(0.0174993 0 0)
(0.0486553 0 0)
(0.127845 0 0)
(0.316295 0 0)
(0.733767 0 0)
(1.58918 0 0)
(3.19956 0 0)
(5.96786 0 0)
(10.2943 0 0)
(16.4343 0 0)
(24.3759 0 0)
(33.8289 0 0)
(44.377 0 0)
(55.4921 0 0)
(66.4744 0 0)
(77.2665 0 0)
(87.8524 0 0)
(98.27 0 0)
(108.565 0 0)
(118.754 0 0)
(128.854 0 0)
(138.877 0 0)
(148.83 0 0)
(158.719 0 0)
(168.548 0 0)
(178.324 0 0)
(188.053 0 0)
(197.739 0 0)
(207.378 0 0)
(216.955 0 0)
(226.43 0 0)
(235.748 0 0)
(244.8 0 0)
(253.78 0 0)
(261.941 0 0)
(269.292 0 0)
(277.14 0 0)
(283.119 0 0)
(285.281 0 0)
(287.262 0 0)
(289.05 0 0)
(289.733 0 0)
(287.799 0 0)
(286.556 0 0)
(285.948 0 0)
(285.741 0 0)
(286.064 0 0)
(286.296 0 0)
(286.27 0 0)
(286.157 0 0)
(285.759 0 0)
(285.685 0 0)
(285.788 0 0)
(285.896 0 0)
(285.863 0 0)
(286.051 0 0)
(285.987 0 0)
(287.768 0 0)
(285.008 0 0)
(288.984 0 0)
(280.834 0 0)
(288.332 0 0)
(284.467 0 0)
(286.393 0 0)
(285.474 0 0)
(285.707 0 0)
(285.582 0 0)
(285.699 0 0)
(285.789 0 0)
(285.795 0 0)
(285.72 0 0)
(285.717 0 0)
(285.818 0 0)
(286.085 0 0)
(286.061 0 0)
(286.091 0 0)
(285.989 0 0)
(285.753 0 0)
(284.858 0 0)
(276.584 0 0)
(205.984 0 0)
(38.3677 0 0)
(3.30357 0 0)
(0.259362 0 0)
(0.0205298 0 0)
(0.0014807 0 0)
)
;

boundaryField
{
    sides
    {
        type            zeroGradient;
    }
    empty
    {
        type            empty;
    }
}


// ************************************************************************* //
