0.000749886 	297681 	0.00505282 	2.03219 	-3.53164e-10 	3.52888e-10
0.0016069 	297756 	0.00505502 	3.65889 	-3.38202e-10 	3.3812e-10
0.0025654 	297802 	0.00505815 	5.47335 	-3.52884e-10 	3.51136e-10
0.00354676 	297833 	0.0050624 	7.40056 	-3.53373e-10 	3.51512e-10
0.0045362 	297857 	0.00506784 	9.37276 	-3.3076e-10 	3.28502e-10
0.00552938 	297876 	0.00507453 	11.3667 	-3.31716e-10 	3.28839e-10
0.0065246 	297892 	0.00508249 	13.3728 	-3.29677e-10 	3.25859e-10
0.00752105 	297906 	0.00509172 	15.3863 	-3.24489e-10 	3.21431e-10
0.00851829 	297919 	0.00510225 	17.4046 	-3.09087e-10 	3.06636e-10
0.00951608 	297930 	0.00511408 	19.4262 	-2.88384e-10 	2.86013e-10
0.0105143 	297941 	0.00512724 	21.4503 	-2.69189e-10 	2.67966e-10
0.0115127 	297950 	0.00514172 	23.4762 	-2.52272e-10 	2.5117e-10
0.0125114 	297959 	0.00515754 	25.5035 	-2.36993e-10 	2.35497e-10
0.0135103 	297968 	0.00517472 	27.5319 	-2.21339e-10 	2.19393e-10
0.0145093 	297976 	0.00519326 	29.5612 	-2.05369e-10 	2.03082e-10
0.0155084 	297984 	0.00521319 	31.5912 	-1.8951e-10 	1.86841e-10
0.0165076 	297991 	0.00523451 	33.6218 	-1.7404e-10 	1.73104e-10
0.0175069 	297999 	0.00525725 	35.6529 	-1.65464e-10 	1.65469e-10
0.0185062 	298006 	0.00528142 	37.6844 	-1.57866e-10 	1.57858e-10
0.0195056 	298013 	0.00530703 	39.7163 	-1.55263e-10 	1.55255e-10
0.020505 	298020 	0.00533411 	41.7485 	-1.53496e-10 	1.53494e-10
0.0215045 	298026 	0.00536268 	43.781 	-1.52045e-10 	1.52047e-10
0.022504 	298033 	0.00539276 	45.8138 	-1.50163e-10 	1.50158e-10
0.0235035 	298040 	0.00542438 	47.8468 	-1.48881e-10 	1.48882e-10
0.0245031 	298046 	0.00545754 	49.88 	-1.46756e-10 	1.46758e-10
0.0255027 	298053 	0.00549229 	51.9135 	-1.43328e-10 	1.43331e-10
0.0265023 	298059 	0.00552864 	53.9471 	-1.40067e-10 	1.40064e-10
0.0275019 	298066 	0.00556663 	55.9808 	-1.38078e-10 	1.38072e-10
0.0285015 	298072 	0.00560628 	58.0147 	-1.32662e-10 	1.32663e-10
0.0295012 	298079 	0.00564763 	60.0488 	-1.27941e-10 	1.27944e-10
0.0305008 	298085 	0.0056907 	62.083 	-1.23896e-10 	1.23898e-10
0.0315005 	298092 	0.00573553 	64.1174 	-1.19763e-10 	1.19734e-10
0.0325002 	298098 	0.00578215 	66.1518 	-1.13249e-10 	1.13193e-10
0.0334999 	298105 	0.0058306 	68.1864 	-1.06972e-10 	1.06937e-10
0.0344996 	298112 	0.00588092 	70.2212 	-1.01574e-10 	1.01558e-10
0.0354993 	298118 	0.00593315 	72.256 	-9.72995e-11 	9.72995e-11
0.036499 	298125 	0.00598732 	74.291 	-9.33158e-11 	9.33158e-11
0.0374987 	298132 	0.00604348 	76.326 	-9.01461e-11 	9.01461e-11
0.0384985 	298139 	0.00610168 	78.3612 	-8.76496e-11 	8.76496e-11
0.0394982 	298146 	0.00616196 	80.3965 	-8.47553e-11 	8.47553e-11
0.040498 	298154 	0.00622437 	82.4319 	-8.03821e-11 	8.03821e-11
0.0414977 	298161 	0.00628895 	84.4674 	-7.53538e-11 	7.53538e-11
0.0424975 	298169 	0.00635577 	86.5031 	-7.01038e-11 	7.01038e-11
0.0434972 	298176 	0.00642488 	88.5388 	-6.48438e-11 	6.48438e-11
0.044497 	298184 	0.00649633 	90.5746 	-6.03209e-11 	6.03209e-11
0.0454967 	298192 	0.00657018 	92.6106 	-5.56404e-11 	5.56404e-11
0.0464965 	298200 	0.0066465 	94.6467 	-4.99566e-11 	4.99566e-11
0.0474963 	298208 	0.00672534 	96.6829 	-4.48816e-11 	4.48816e-11
0.0484961 	298216 	0.00680678 	98.7192 	-3.87875e-11 	3.87875e-11
0.0494958 	298225 	0.00689087 	100.756 	-3.4103e-11 	3.4103e-11
0.0504956 	298233 	0.0069777 	102.792 	-2.89249e-11 	2.89249e-11
0.0514954 	298242 	0.00706733 	104.829 	-2.45957e-11 	2.45957e-11
0.0524952 	298251 	0.00715985 	106.866 	-2.05418e-11 	2.05418e-11
0.053495 	298260 	0.00725534 	108.902 	-1.63908e-11 	1.63908e-11
0.0544948 	298270 	0.00735386 	110.939 	-1.18579e-11 	1.18579e-11
0.0554946 	298280 	0.00745552 	112.977 	-7.9996e-12 	7.9996e-12
0.0564944 	298289 	0.0075604 	115.014 	-4.73642e-12 	4.73642e-12
0.0574942 	298299 	0.0076686 	117.051 	-2.05363e-12 	2.05363e-12
0.058494 	298310 	0.00778021 	119.089 	4.05541e-13 	-4.05541e-13
0.0594938 	298320 	0.00789532 	121.127 	2.74234e-12 	-2.74234e-12
0.0604936 	298331 	0.00801405 	123.165 	3.70546e-12 	-3.70546e-12
0.0614934 	298342 	0.00813651 	125.203 	4.69933e-12 	-4.69933e-12
0.0624932 	298353 	0.00826279 	127.241 	5.27216e-12 	-5.27216e-12
0.063493 	298365 	0.00839303 	129.279 	5.45026e-12 	-5.45026e-12
0.0644928 	298377 	0.00852734 	131.317 	5.26282e-12 	-5.26282e-12
0.0654926 	298389 	0.00866584 	133.356 	5.00837e-12 	-5.00837e-12
0.0664924 	298401 	0.00880867 	135.395 	5.0284e-12 	-5.0284e-12
0.0674922 	298414 	0.00895596 	137.434 	5.3844e-12 	-5.3844e-12
0.068492 	298427 	0.00910785 	139.473 	4.77819e-12 	-4.77819e-12
0.0694918 	298440 	0.00926448 	141.512 	4.41566e-12 	-4.41566e-12
0.0704916 	298454 	0.00942602 	143.552 	4.2497e-12 	-4.2497e-12
0.0714915 	298468 	0.0095926 	145.592 	4.10876e-12 	-4.10876e-12
0.0724913 	298483 	0.0097644 	147.631 	3.9411e-12 	-3.9411e-12
0.0734911 	298497 	0.00994159 	149.672 	3.99657e-12 	-3.99657e-12
0.0744909 	298513 	0.0101243 	151.712 	4.04547e-12 	-4.04552e-12
0.0754907 	298528 	0.0103128 	153.752 	4.30539e-12 	-4.30365e-12
0.0764906 	298544 	0.0105072 	155.793 	3.84415e-12 	-3.84282e-12
0.0774904 	298561 	0.0107078 	157.834 	3.49977e-12 	-3.49974e-12
0.0784902 	298578 	0.0109147 	159.875 	3.32132e-12 	-3.32156e-12
0.07949 	298595 	0.0111281 	161.917 	3.14671e-12 	-3.14462e-12
0.0804898 	298613 	0.0113483 	163.959 	3.09903e-12 	-3.06691e-12
0.0814897 	298631 	0.0115755 	166.001 	2.85996e-12 	-2.81561e-12
0.0824895 	298650 	0.0118099 	168.043 	2.57182e-12 	-2.50755e-12
0.0834893 	298670 	0.0120518 	170.085 	1.71993e-12 	-1.63612e-12
0.0844891 	298690 	0.0123014 	172.128 	6.86243e-13 	-5.83454e-13
0.085489 	298710 	0.012559 	174.171 	-5.279e-13 	6.03903e-13
0.0864888 	298732 	0.0128249 	176.215 	-1.23359e-12 	1.28388e-12
0.0874886 	298754 	0.0130993 	178.258 	-1.919e-12 	1.94692e-12
0.0884884 	298776 	0.0133827 	180.302 	-2.13319e-12 	2.13809e-12
0.0894883 	298799 	0.0136751 	182.347 	-2.27182e-12 	2.27655e-12
0.0904881 	298823 	0.0139771 	184.391 	-2.52952e-12 	2.54163e-12
0.0914879 	298847 	0.0142889 	186.437 	-2.36061e-12 	2.38068e-12
0.0924877 	298873 	0.0146109 	188.482 	-2.25543e-12 	2.36324e-12
0.0934876 	298899 	0.0149434 	190.528 	-2.23538e-12 	2.33599e-12
0.0944874 	298925 	0.0152868 	192.574 	-1.82701e-12 	1.91964e-12
0.0954872 	298953 	0.0156416 	194.621 	-1.49528e-12 	1.47539e-12
0.0964871 	298982 	0.016008 	196.668 	-1.28506e-12 	1.15056e-12
0.0974869 	299011 	0.0163866 	198.715 	-9.98101e-13 	9.96449e-13
0.0984867 	299041 	0.0167777 	200.763 	-7.2642e-13 	7.3583e-13
0.0994866 	299072 	0.0171818 	202.811 	-4.10071e-13 	4.31812e-13
0.100486 	299105 	0.0175995 	204.86 	-3.06967e-13 	3.42442e-13
0.101486 	299138 	0.0180311 	206.909 	-2.09146e-13 	2.61386e-13
0.102486 	299172 	0.0184773 	208.959 	-8.6563e-15 	6.49614e-14
0.103486 	299208 	0.0189384 	211.009 	0 	-5.67529e-14
0.104486 	299244 	0.0194152 	213.06 	1.19955e-13 	-3.74029e-13
0.105486 	299282 	0.0199081 	215.112 	4.30829e-13 	-6.54696e-13
0.106485 	299321 	0.0204178 	217.164 	5.7164e-13 	-7.64744e-13
0.107485 	299361 	0.0209448 	219.217 	8.98919e-13 	-1.0613e-12
0.108485 	299403 	0.0214899 	221.27 	1.07303e-12 	-1.20436e-12
0.109485 	299445 	0.0220536 	223.324 	1.42218e-12 	-1.52182e-12
0.110485 	299490 	0.0226367 	225.378 	1.95438e-12 	-2.02129e-12
0.111485 	299536 	0.02324 	227.434 	2.64477e-12 	-2.69595e-12
0.112484 	299583 	0.0238641 	229.49 	2.92944e-12 	-2.96423e-12
0.113484 	299632 	0.0245098 	231.546 	3.1229e-12 	-3.1471e-12
0.114484 	299683 	0.025178 	233.604 	3.48318e-12 	-3.49728e-12
0.115484 	299735 	0.0258695 	235.662 	3.46745e-12 	-3.47135e-12
0.116484 	299789 	0.0265852 	237.722 	3.06698e-12 	-3.05914e-12
0.117484 	299845 	0.027326 	239.782 	2.7207e-12 	-2.73617e-12
0.118483 	299903 	0.0280928 	241.843 	2.49047e-12 	-2.47871e-12
0.119483 	299963 	0.0288866 	243.904 	2.16601e-12 	-2.15991e-12
0.120483 	300025 	0.0297085 	245.967 	2.18876e-12 	-2.18887e-12
0.121483 	300089 	0.0305595 	248.031 	2.25504e-12 	-2.2548e-12
0.122483 	300156 	0.0314407 	250.096 	2.00312e-12 	-2.00268e-12
0.123483 	300225 	0.0323532 	252.162 	1.85202e-12 	-1.85149e-12
0.124482 	300296 	0.0332983 	254.229 	1.80704e-12 	-1.80638e-12
0.125482 	300370 	0.0342772 	256.297 	1.6691e-12 	-1.66879e-12
0.126482 	300447 	0.0352912 	258.367 	1.4309e-12 	-1.43048e-12
0.127482 	300526 	0.0363416 	260.438 	1.08333e-12 	-1.0834e-12
0.128482 	300608 	0.0374297 	262.51 	7.51122e-13 	-7.51365e-13
0.129482 	300693 	0.0385571 	264.583 	4.68298e-13 	-4.68302e-13
0.130481 	300782 	0.0397253 	266.658 	2.48677e-13 	-2.48761e-13
0.131481 	300873 	0.0409357 	268.734 	9.43574e-14 	-9.45629e-14
0.132481 	300968 	0.0421899 	270.812 	-4.26993e-15 	4.25981e-15
0.133481 	301067 	0.0434898 	272.891 	-1.9639e-13 	1.96386e-13
0.134481 	301169 	0.0448369 	274.972 	-3.40998e-13 	3.40996e-13
0.135481 	301275 	0.0462331 	277.055 	-2.81628e-13 	2.81627e-13
0.13648 	301385 	0.0476802 	279.14 	-1.40677e-13 	1.40676e-13
0.13748 	301499 	0.0491802 	281.226 	-2.02059e-13 	2.02059e-13
0.13848 	301617 	0.0507351 	283.314 	-2.02604e-13 	2.02604e-13
0.13948 	301740 	0.052347 	285.405 	-2.01769e-13 	2.01769e-13
0.14048 	301867 	0.054018 	287.497 	-2.01192e-13 	2.01192e-13
0.14148 	302000 	0.0557503 	289.591 	-2.00195e-13 	2.00195e-13
0.14248 	302137 	0.0575463 	291.688 	-2.26222e-13 	2.26222e-13
0.143479 	302280 	0.0594084 	293.787 	-1.96992e-13 	1.96992e-13
0.144479 	302428 	0.061339 	295.889 	-1.95582e-13 	1.95582e-13
0.145479 	302582 	0.0633408 	297.993 	-1.73452e-13 	1.73452e-13
0.146479 	302742 	0.0654164 	300.1 	-2.06898e-13 	2.06898e-13
0.147479 	302908 	0.0675685 	302.209 	-1.93997e-13 	1.93997e-13
0.148479 	303081 	0.0698001 	304.321 	-1.39286e-13 	1.39286e-13
0.149478 	303260 	0.072114 	306.437 	-2.26524e-14 	2.27934e-14
0.150478 	303446 	0.0745134 	308.555 	-3.61593e-14 	3.62932e-14
0.151478 	303640 	0.0770014 	310.677 	-9.79541e-14 	9.80815e-14
0.152478 	303842 	0.0795812 	312.801 	-2.90614e-14 	2.91827e-14
0.153478 	304051 	0.0822564 	314.93 	8.25157e-15 	-8.13612e-15
0.154478 	304269 	0.0850304 	317.062 	-8.35858e-14 	8.38076e-14
0.155477 	304495 	0.0879068 	319.198 	-6.47855e-14 	6.49957e-14
0.156477 	304730 	0.0908894 	321.338 	-8.5741e-14 	8.58706e-14
0.157477 	304975 	0.0939821 	323.481 	-1.41404e-13 	1.41495e-13
0.158477 	305230 	0.0971888 	325.63 	-8.96911e-14 	8.97309e-14
0.159477 	305495 	0.100514 	327.782 	-1.46575e-13 	1.46631e-13
0.160477 	305771 	0.103961 	329.939 	-1.82775e-13 	1.82788e-13
0.161476 	306057 	0.107535 	332.101 	-1.7918e-13 	1.79207e-13
0.162476 	306356 	0.111241 	334.268 	-1.40402e-13 	1.40458e-13
0.163476 	306666 	0.115083 	336.441 	-2.01439e-13 	2.01509e-13
0.164476 	306989 	0.119066 	338.618 	-1.79662e-13 	1.79685e-13
0.165476 	307325 	0.123195 	340.802 	-1.78602e-13 	1.78583e-13
0.166476 	307675 	0.127476 	342.991 	-1.7744e-13 	1.77482e-13
0.167476 	308039 	0.131913 	345.186 	-1.46696e-13 	1.46726e-13
0.168475 	308419 	0.136512 	347.388 	-1.77043e-13 	1.77071e-13
0.169475 	308813 	0.141279 	349.597 	-2.33311e-13 	2.33365e-13
0.170475 	309224 	0.146219 	351.812 	-2.87103e-13 	2.87214e-13
0.171475 	309652 	0.15134 	354.035 	-3.48978e-13 	3.48877e-13
0.172475 	310097 	0.156646 	356.265 	-3.58099e-13 	3.57725e-13
0.173475 	310561 	0.162145 	358.503 	-3.6495e-13 	3.64624e-13
0.174474 	311044 	0.167843 	360.75 	-4.12782e-13 	4.12555e-13
0.175474 	311547 	0.173747 	363.004 	-4.12712e-13 	4.1255e-13
0.176474 	312071 	0.179864 	365.268 	-3.62992e-13 	3.62861e-13
0.177474 	312616 	0.186202 	367.541 	-3.24865e-13 	3.24776e-13
0.178474 	313184 	0.192767 	369.823 	-3.02105e-13 	3.02091e-13
0.179474 	313776 	0.199568 	372.116 	-2.12191e-13 	2.12215e-13
0.180473 	314392 	0.206613 	374.418 	-1.52132e-13 	1.52302e-13
0.181473 	315034 	0.213909 	376.732 	-1.21143e-13 	1.21432e-13
0.182473 	315703 	0.221466 	379.057 	-7.90908e-14 	7.93531e-14
0.183473 	316400 	0.229292 	381.393 	-4.18092e-14 	4.20096e-14
0.184473 	317125 	0.237397 	383.742 	-1.15121e-14 	1.16567e-14
0.185473 	317881 	0.245789 	386.103 	0 	0
0.186473 	318669 	0.254478 	388.478 	0 	0
0.187472 	319489 	0.263474 	390.866 	0 	0
0.188472 	320344 	0.272788 	393.268 	0 	0
0.189472 	321235 	0.28243 	395.686 	0 	0
0.190472 	322163 	0.292411 	398.118 	2.60478e-14 	-2.60478e-14
0.191472 	323131 	0.302742 	400.567 	3.54214e-14 	-3.54214e-14
0.192472 	324138 	0.313435 	403.032 	1.59595e-14 	-1.59595e-14
0.193471 	325188 	0.324502 	405.515 	2.36412e-15 	-2.36412e-15
0.194471 	326283 	0.335955 	408.015 	1.37458e-14 	-1.37458e-14
0.195471 	327423 	0.347808 	410.534 	0 	0
0.196471 	328611 	0.360073 	413.073 	-2.03773e-14 	2.03773e-14
0.197471 	329850 	0.372764 	415.631 	-2.73216e-14 	2.73216e-14
0.198471 	331141 	0.385895 	418.21 	-8.55468e-15 	8.55468e-15
0.199471 	332486 	0.399482 	420.811 	2.64985e-14 	-2.6484e-14
0.20047 	333888 	0.413539 	423.435 	6.91948e-14 	-6.91396e-14
0.20147 	335349 	0.428082 	426.081 	6.71938e-14 	-6.71014e-14
0.20247 	336873 	0.443127 	428.752 	5.1087e-14 	-5.10033e-14
0.20347 	338460 	0.458691 	431.448 	3.18275e-14 	-3.17426e-14
0.20447 	340115 	0.474792 	434.17 	1.41981e-14 	-1.41037e-14
0.20547 	341840 	0.491447 	436.918 	4.66351e-15 	-4.57109e-15
0.206469 	343639 	0.508676 	439.694 	1.2838e-14 	-1.27495e-14
0.207469 	345513 	0.526498 	442.499 	3.6594e-15 	-3.57243e-15
0.208469 	347468 	0.544932 	445.334 	1.07803e-14 	-1.06992e-14
0.209469 	349506 	0.564 	448.2 	3.97085e-16 	-3.20896e-16
0.210469 	351630 	0.583723 	451.097 	-9.30518e-16 	9.94418e-16
0.211469 	353845 	0.604124 	454.028 	-4.88395e-15 	4.91114e-15
0.212468 	356155 	0.625227 	456.992 	-1.85089e-14 	1.85421e-14
0.213468 	358563 	0.647054 	459.992 	-3.1194e-14 	3.12223e-14
0.214468 	361074 	0.669632 	463.028 	-6.40912e-14 	6.41184e-14
0.215468 	363693 	0.692987 	466.102 	-8.76284e-14 	8.76588e-14
0.216468 	366424 	0.717145 	469.214 	-8.80251e-14 	8.80641e-14
0.217468 	369272 	0.742135 	472.366 	-8.63081e-14 	8.63539e-14
0.218468 	372243 	0.767987 	475.56 	-7.38213e-14 	7.38578e-14
0.219467 	375341 	0.794729 	478.795 	-6.22976e-14 	6.23238e-14
0.220467 	378573 	0.822395 	482.075 	-5.17171e-14 	5.17424e-14
0.221467 	381945 	0.851016 	485.399 	-4.19694e-14 	4.19833e-14
0.222467 	385461 	0.880627 	488.769 	-3.30166e-14 	3.30255e-14
0.223467 	389130 	0.911263 	492.187 	-2.42444e-14 	2.42444e-14
0.224467 	392958 	0.942961 	495.654 	-4.04945e-15 	4.04945e-15
0.225466 	396951 	0.975759 	499.171 	8.80508e-16 	-8.80508e-16
0.226466 	401118 	1.0097 	502.739 	-2.5205e-15 	2.5205e-15
0.227466 	405465 	1.04481 	506.36 	-1.91405e-14 	1.91405e-14
0.228466 	410002 	1.08116 	510.035 	-2.21072e-14 	2.21072e-14
0.229466 	414736 	1.11876 	513.765 	-2.00535e-14 	2.00535e-14
0.230466 	419676 	1.15769 	517.551 	-4.2273e-14 	4.2273e-14
0.231466 	424832 	1.19797 	521.395 	-3.66937e-14 	3.66937e-14
0.232465 	430213 	1.23966 	525.299 	-3.88798e-14 	3.88798e-14
0.233465 	435830 	1.28281 	529.262 	-3.21725e-14 	3.21725e-14
0.234465 	441691 	1.32747 	533.287 	-2.61855e-14 	2.61855e-14
0.235465 	447810 	1.3737 	537.374 	-2.05306e-14 	2.05306e-14
0.236465 	454196 	1.42156 	541.525 	-1.53721e-14 	1.53721e-14
0.237465 	460862 	1.47109 	545.74 	-1.06814e-14 	1.06814e-14
0.238464 	467821 	1.52236 	550.021 	-6.54202e-15 	6.54202e-15
0.239464 	475084 	1.57543 	554.368 	-4.32169e-15 	4.32169e-15
0.240464 	482666 	1.63036 	558.783 	-2.14738e-14 	2.14738e-14
0.241464 	490579 	1.68722 	563.265 	-1.6099e-14 	1.6099e-14
0.242464 	498840 	1.74606 	567.817 	-3.16023e-14 	3.16023e-14
0.243464 	507462 	1.80696 	572.437 	-1.35557e-14 	1.35557e-14
0.244464 	516461 	1.86998 	577.127 	3.49271e-15 	-3.49271e-15
0.245463 	525852 	1.93519 	581.887 	1.83311e-14 	-1.83311e-14
0.246463 	535652 	2.00266 	586.717 	2.63631e-15 	-2.63631e-15
0.247463 	545876 	2.07245 	591.616 	1.39571e-15 	-1.39571e-15
0.248463 	556542 	2.14463 	596.583 	1.486e-14 	-1.486e-14
0.249463 	567664 	2.21924 	601.619 	1.10063e-15 	-1.10063e-15
0.250463 	579242 	2.29611 	606.731 	-2.65322e-16 	2.65322e-16
0.251462 	591301 	2.37533 	611.91 	3.09237e-15 	-3.09237e-15
0.252462 	603860 	2.45708 	617.149 	1.35979e-15 	-1.35979e-15
0.253462 	616928 	2.54144 	622.441 	7.91748e-16 	-7.91748e-16
0.254462 	630512 	2.62845 	627.778 	0 	-1.07949e-34
0.255462 	644609 	2.7181 	633.145 	0 	1.17096e-34
0.256462 	659198 	2.81033 	638.52 	-7.44864e-16 	7.44864e-16
0.257462 	674238 	2.90498 	643.869 	-9.48723e-15 	9.48723e-15
0.258461 	689645 	3.00177 	649.138 	-6.25812e-15 	6.25812e-15
0.259461 	705268 	3.10016 	654.241 	-3.59213e-15 	3.59213e-15
0.260461 	720844 	3.19925 	659.041 	-1.03755e-15 	1.03755e-15
0.261461 	735930 	3.29747 	663.318 	0 	0
0.262461 	749778 	3.39225 	666.719 	5.45541e-16 	-5.45541e-16
0.263461 	761154 	3.47925 	668.668 	2.25181e-15 	-2.25181e-15
0.26446 	768029 	3.55136 	668.232 	8.7513e-15 	-8.7513e-15
0.26546 	767152 	3.5971 	663.881 	6.80542e-15 	-6.80542e-15
0.26646 	753489 	3.59842 	653.124 	1.33871e-14 	-1.33871e-14
0.26746 	719754 	3.52871 	631.922 	1.17395e-14 	-1.17395e-14
0.26846 	656787 	3.35296 	593.879 	1.0759e-14 	-1.0759e-14
0.26946 	556697 	3.03603 	529.636 	1.00287e-14 	-1.00287e-14
0.27046 	422599 	2.57067 	429.111 	7.44552e-15 	-7.44552e-15
0.271459 	280188 	2.02736 	290.772 	3.40916e-15 	-3.40916e-15
0.272459 	171467 	1.55621 	142.854 	1.01845e-15 	-1.01845e-15
0.273459 	118810 	1.28403 	43.8185 	0 	0
0.274459 	103634 	1.18814 	8.94331 	-1.45562e-15 	1.45562e-15
0.275459 	100620 	1.16596 	1.54489 	-5.92007e-15 	5.92007e-15
0.276459 	100101 	1.16184 	0.256372 	-1.50164e-15 	1.50164e-15
0.277458 	100015 	1.16114 	0.0420607 	0 	0
0.278458 	100000 	1.16102 	0.00685542 	0 	0
0.279458 	99998 	1.161 	0.00111099 	0 	0
0.280458 	99997.7 	1.161 	0.000179052 	0 	0
0.281458 	99997.6 	1.161 	2.86996e-05 	9.41209e-16 	-9.41209e-16
0.282458 	99997.6 	1.161 	4.57531e-06 	4.71657e-15 	-4.71657e-15
0.283457 	99997.6 	1.161 	7.25495e-07 	0 	0
0.284457 	99997.6 	1.161 	1.14422e-07 	-4.65832e-15 	4.65832e-15
0.285457 	99997.6 	1.161 	1.79407e-08 	-9.34518e-16 	9.34518e-16
0.286457 	99997.6 	1.161 	2.78715e-09 	0 	0
0.287457 	99997.6 	1.161 	4.23691e-10 	0 	0
0.288457 	99997.6 	1.161 	6.35021e-11 	-2.71625e-15 	2.71625e-15
0.289457 	99997.6 	1.161 	9.68775e-12 	0 	0
0.290456 	99997.6 	1.161 	1.95715e-12 	0 	0
0.291456 	99997.6 	1.161 	4.48167e-12 	1.77853e-15 	-1.77853e-15
0.292456 	99997.6 	1.161 	7.80344e-12 	-1.75547e-15 	1.75547e-15
0.293456 	99997.6 	1.161 	1.32311e-12 	0 	0
0.294456 	99997.6 	1.161 	-2.26277e-13 	0 	0
0.295456 	99997.6 	1.161 	1.26359e-11 	1.73299e-15 	-1.73299e-15
0.296455 	99997.6 	1.161 	2.04343e-11 	-1.71006e-15 	1.71006e-15
0.297455 	99997.6 	1.161 	1.67824e-11 	0 	0
0.298455 	99997.6 	1.161 	8.64542e-12 	0 	0
0.299455 	99997.6 	1.161 	2.95791e-12 	0 	0
0.300455 	99997.6 	1.161 	-4.41156e-12 	-2.50428e-15 	2.50428e-15
0.301455 	99997.6 	1.161 	-7.09224e-12 	-7.49802e-19 	7.49802e-19
0.302455 	99997.6 	1.161 	4.85758e-13 	-2.47049e-15 	2.47049e-15
0.303454 	99997.6 	1.161 	7.71565e-12 	0 	0
0.304454 	99997.6 	1.161 	3.1205e-12 	2.43854e-15 	-2.43854e-15
0.305454 	99997.6 	1.161 	-3.45538e-12 	0 	0
0.306454 	99997.6 	1.161 	-6.15015e-12 	0 	0
0.307454 	99997.6 	1.161 	-1.26446e-11 	0 	0
0.308454 	99997.6 	1.161 	-1.19917e-11 	-4.75074e-15 	4.75074e-15
0.309453 	99997.6 	1.161 	-1.66166e-11 	-4.73558e-15 	4.73558e-15
0.310453 	99997.6 	1.161 	-2.42684e-11 	-1.60424e-17 	1.60424e-17
0.311453 	99997.6 	1.161 	-3.6925e-11 	0 	0
0.312453 	99997.6 	1.161 	-3.0461e-11 	0 	0
0.313453 	99997.6 	1.161 	-6.29986e-12 	0 	0
0.314453 	99997.6 	1.161 	6.28665e-12 	2.28362e-15 	-2.28362e-15
0.315453 	99997.6 	1.161 	1.04324e-11 	0 	0
0.316452 	99997.6 	1.161 	6.61063e-12 	0 	0
0.317452 	99997.6 	1.161 	2.55009e-11 	-3.84066e-16 	3.84066e-16
0.318452 	99997.6 	1.161 	3.96599e-11 	-5.23578e-15 	5.23578e-15
0.319452 	99997.6 	1.161 	2.65388e-11 	-1.44972e-14 	1.44972e-14
0.320452 	99997.6 	1.161 	6.44855e-14 	-1.92851e-14 	1.92851e-14
0.321452 	99997.6 	1.161 	-7.51492e-12 	-1.96599e-14 	1.96599e-14
0.322451 	99997.6 	1.161 	8.78967e-12 	-1.5671e-14 	1.5671e-14
0.323451 	99997.6 	1.161 	1.85346e-11 	-1.60379e-14 	1.60379e-14
0.324451 	99997.6 	1.161 	1.54757e-11 	-1.20956e-14 	1.20956e-14
0.325451 	99997.6 	1.161 	3.60938e-12 	-3.89607e-15 	3.89607e-15
0.326451 	99997.6 	1.161 	-3.31579e-12 	0 	0
0.327451 	99997.6 	1.161 	-8.00944e-12 	0 	0
0.328451 	99997.6 	1.161 	-1.24773e-11 	2.09515e-15 	-2.09515e-15
0.32945 	99997.6 	1.161 	-6.23349e-12 	0 	0
0.33045 	99997.6 	1.161 	7.57881e-12 	0 	0
0.33145 	99997.6 	1.161 	1.43751e-11 	0 	0
0.33245 	99997.6 	1.161 	1.68837e-11 	0 	0
0.33345 	99997.6 	1.161 	9.58332e-12 	-4.06525e-15 	4.06525e-15
0.33445 	99997.6 	1.161 	-3.32271e-12 	-4.05363e-15 	4.05363e-15
0.33545 	99997.6 	1.161 	-1.2336e-11 	-1.27789e-17 	1.27789e-17
0.336449 	99997.6 	1.161 	-1.40396e-11 	0 	0
0.337449 	99997.6 	1.161 	-2.08897e-11 	0 	0
0.338449 	99997.6 	1.161 	-2.37918e-11 	0 	0
0.339449 	99997.6 	1.161 	-2.24079e-11 	0 	0
0.340449 	99997.6 	1.161 	-3.04792e-11 	0 	0
0.341449 	99997.6 	1.161 	-1.64106e-11 	-1.9368e-15 	1.9368e-15
0.342448 	99997.6 	1.161 	-1.92579e-12 	0 	0
0.343448 	99997.6 	1.161 	-8.95099e-12 	0 	0
0.344448 	99997.6 	1.161 	-1.60368e-11 	1.90628e-15 	-1.90628e-15
0.345448 	99997.6 	1.161 	1.28316e-12 	2.80426e-18 	-2.80426e-18
0.346448 	99997.6 	1.161 	1.69618e-11 	1.88457e-15 	-1.88457e-15
0.347448 	99997.6 	1.161 	8.87075e-12 	0 	0
0.348448 	99997.6 	1.161 	-5.07561e-12 	-3.09654e-15 	3.09654e-15
0.349447 	99997.6 	1.161 	-5.58136e-12 	-2.46339e-15 	2.46339e-15
0.350447 	99997.6 	1.161 	2.99362e-12 	-5.52351e-15 	5.52351e-15
0.351447 	99997.6 	1.161 	1.6807e-12 	-4.89684e-15 	4.89684e-15
0.352447 	99997.6 	1.161 	8.67296e-12 	-6.22421e-16 	6.22421e-16
0.353447 	99997.6 	1.161 	1.60114e-11 	0 	0
0.354447 	99997.6 	1.161 	1.42265e-11 	0 	0
0.355446 	99997.6 	1.161 	5.31598e-12 	1.78885e-15 	-1.78885e-15
0.356446 	99997.6 	1.161 	-6.94661e-13 	0 	0
0.357446 	99997.6 	1.161 	8.20485e-13 	-4.24139e-15 	4.24139e-15
0.358446 	99997.6 	1.161 	-1.79942e-12 	-4.93168e-15 	4.93168e-15
0.359446 	99997.6 	1.161 	-8.39741e-12 	-2.10969e-15 	2.10969e-15
0.360446 	99997.6 	1.161 	-1.71245e-11 	-2.78991e-15 	2.78991e-15
0.361446 	99997.6 	1.161 	-1.88252e-11 	0 	0
0.362445 	99997.6 	1.161 	-1.3039e-11 	0 	0
0.363445 	99997.6 	1.161 	6.74669e-12 	-1.71043e-15 	1.71043e-15
0.364445 	99997.6 	1.161 	8.30571e-12 	1.94007e-18 	-1.94007e-18
0.365445 	99997.6 	1.161 	6.07588e-12 	-1.69033e-15 	1.69033e-15
0.366445 	99997.6 	1.161 	9.48014e-12 	0 	0
0.367445 	99997.6 	1.161 	-1.04176e-11 	1.67413e-15 	-1.67413e-15
0.368444 	99997.6 	1.161 	-2.47406e-11 	0 	0
0.369444 	99997.6 	1.161 	-1.36845e-11 	0 	0
0.370444 	99997.6 	1.161 	-8.1228e-12 	-7.97461e-16 	7.97461e-16
0.371444 	99997.6 	1.161 	-1.81076e-11 	-4.87669e-15 	4.87669e-15
0.372444 	99997.6 	1.161 	-1.60055e-11 	-5.66569e-15 	5.66569e-15
0.373444 	99997.6 	1.161 	-1.04703e-11 	-9.69612e-15 	9.69612e-15
0.374444 	99997.6 	1.161 	-4.51598e-12 	-1.04757e-14 	1.04757e-14
0.375443 	99997.6 	1.161 	-4.34988e-12 	-8.03599e-15 	8.03599e-15
0.376443 	99997.6 	1.161 	-4.83728e-12 	-2.4142e-15 	2.4142e-15
0.377443 	99997.6 	1.161 	-3.7118e-12 	0 	0
0.378443 	99997.6 	1.161 	-1.05079e-11 	0 	0
0.379443 	99997.6 	1.161 	-7.70991e-12 	1.57118e-15 	-1.57118e-15
0.380443 	99997.6 	1.161 	-1.50488e-11 	2.71733e-18 	-2.71733e-18
0.381442 	99997.6 	1.161 	-2.77565e-11 	1.5533e-15 	-1.5533e-15
0.382442 	99997.6 	1.161 	-2.41389e-11 	0 	0
0.383442 	99997.6 	1.161 	-1.23419e-11 	0 	0
0.384442 	99997.6 	1.161 	2.64992e-12 	-1.5291e-15 	1.5291e-15
0.385442 	99997.6 	1.161 	5.55299e-12 	0 	0
0.386442 	99997.6 	1.161 	2.61868e-12 	0 	0
0.387442 	99997.6 	1.161 	6.24481e-12 	0 	0
0.388441 	99997.6 	1.161 	1.42635e-11 	2.99397e-15 	-2.99397e-15
0.389441 	99997.6 	1.161 	9.75139e-12 	2.98905e-15 	-2.98905e-15
0.390441 	99997.6 	1.161 	8.7957e-12 	8.73602e-18 	-8.73602e-18
0.391441 	99997.6 	1.161 	1.96652e-11 	0 	0
0.392441 	99997.6 	1.161 	1.05374e-11 	0 	0
0.393441 	99997.6 	1.161 	-1.94052e-12 	1.46019e-15 	-1.46019e-15
0.39444 	99997.6 	1.161 	-9.81428e-12 	0 	0
0.39544 	99997.6 	1.161 	-5.3864e-12 	0 	0
0.39644 	99997.6 	1.161 	7.11037e-12 	0 	0
0.39744 	99997.6 	1.161 	7.49104e-12 	0 	0
0.39844 	99997.6 	1.161 	-2.94362e-12 	0 	0
0.39944 	99997.6 	1.161 	-1.04523e-11 	0 	0
0.40044 	99997.6 	1.161 	-3.88319e-12 	0 	0
0.401439 	99997.6 	1.161 	3.51938e-12 	0 	0
0.402439 	99997.6 	1.161 	1.50015e-11 	5.96198e-16 	-5.96198e-16
0.403439 	99997.6 	1.161 	3.01786e-11 	3.97407e-15 	-3.97407e-15
0.404439 	99997.6 	1.161 	2.74337e-11 	1.01028e-14 	-1.01028e-14
0.405439 	99997.6 	1.161 	1.69776e-11 	1.34435e-14 	-1.34435e-14
0.406439 	99997.6 	1.161 	1.32654e-11 	1.40273e-14 	-1.40273e-14
0.407438 	99997.6 	1.161 	1.05351e-11 	6.41929e-15 	-6.41929e-15
0.408438 	99997.6 	1.161 	-2.57825e-12 	1.56298e-15 	-1.56298e-15
0.409438 	99997.6 	1.161 	-1.38632e-11 	-5.68957e-16 	5.68957e-16
0.410438 	99997.6 	1.161 	-1.44773e-11 	0 	0
0.411438 	99997.6 	1.161 	-1.30396e-11 	0 	0
0.412438 	99997.6 	1.161 	-6.89542e-12 	0 	0
0.413438 	99997.6 	1.161 	-2.56179e-12 	0 	0
0.414437 	99997.6 	1.161 	8.48745e-12 	0 	0
0.415437 	99997.6 	1.161 	1.88519e-11 	0 	0
0.416437 	99997.6 	1.161 	2.13215e-11 	0 	0
0.417437 	99997.6 	1.161 	1.58762e-11 	0 	0
0.418437 	99997.6 	1.161 	1.09213e-11 	-8.6332e-16 	8.6332e-16
0.419437 	99997.6 	1.161 	2.20821e-11 	8.53907e-16 	-8.53907e-16
0.420436 	99997.6 	1.161 	2.87758e-11 	0 	0
0.421436 	99997.6 	1.161 	2.79559e-11 	0 	0
0.422436 	99997.6 	1.161 	1.99253e-11 	-1.26743e-15 	1.26743e-15
0.423436 	99997.6 	1.161 	1.06283e-11 	-1.79693e-18 	1.79693e-18
0.424436 	99997.6 	1.161 	2.28949e-12 	-1.25627e-15 	1.25627e-15
0.425436 	99997.6 	1.161 	-5.36568e-12 	-1.53986e-18 	1.53986e-18
0.426436 	99997.6 	1.161 	-5.96717e-12 	-1.24358e-15 	1.24358e-15
0.427435 	99997.6 	1.161 	-7.87001e-12 	0 	0
0.428435 	99997.6 	1.161 	-1.30316e-11 	-8.22128e-16 	8.22128e-16
0.429435 	99997.6 	1.161 	-1.42083e-11 	8.16017e-16 	-8.16017e-16
0.430435 	99997.6 	1.161 	-6.72073e-12 	0 	0
0.431435 	99997.6 	1.161 	-1.91318e-11 	1.21359e-15 	-1.21359e-15
0.432435 	99997.6 	1.161 	-1.95711e-11 	-7.9897e-19 	7.9897e-19
0.433434 	99997.6 	1.161 	-3.22431e-12 	1.20259e-15 	-1.20259e-15
0.434434 	99997.6 	1.161 	7.3401e-12 	0 	0
0.435434 	99997.6 	1.161 	1.57297e-11 	7.96168e-16 	-7.96168e-16
0.436434 	99997.6 	1.161 	1.75251e-11 	-7.89788e-16 	7.89788e-16
0.437434 	99997.6 	1.161 	2.33955e-12 	0 	0
0.438434 	99997.6 	1.161 	-1.01881e-11 	-9.22231e-16 	9.22231e-16
0.439434 	99997.6 	1.161 	-6.69141e-12 	-4.1856e-15 	4.1856e-15
0.440433 	99997.6 	1.161 	-5.04808e-12 	-9.76737e-15 	9.76737e-15
0.441433 	99997.6 	1.161 	-1.11732e-11 	-8.35224e-15 	8.35224e-15
0.442433 	99997.6 	1.161 	-1.57651e-11 	0 	0
0.443433 	99997.6 	1.161 	-2.53058e-11 	8.27128e-15 	-8.27128e-15
0.444433 	99997.6 	1.161 	-2.13409e-11 	9.62649e-15 	-9.62649e-15
0.445433 	99997.6 	1.161 	-5.3942e-12 	4.1287e-15 	-4.1287e-15
0.446433 	99997.6 	1.161 	-3.56748e-12 	9.26006e-16 	-9.26006e-16
0.447432 	99997.6 	1.161 	1.2928e-11 	0 	0
0.448432 	99997.6 	1.161 	4.05823e-11 	9.53667e-16 	-9.53667e-16
0.449432 	99997.6 	1.161 	4.61962e-11 	4.14437e-15 	-4.14437e-15
0.450432 	99997.6 	1.161 	2.54391e-11 	6.24716e-16 	-6.24716e-16
0.451432 	99997.6 	1.161 	2.49052e-11 	-1.7224e-15 	1.7224e-15
0.452432 	99997.6 	1.161 	2.86919e-11 	-6.27122e-15 	6.27122e-15
0.453431 	99997.6 	1.161 	1.60138e-11 	-4.19079e-15 	4.19079e-15
0.454431 	99997.6 	1.161 	7.09881e-12 	-4.31205e-15 	4.31205e-15
0.455431 	99997.6 	1.161 	-2.00231e-12 	-6.61494e-15 	6.61494e-15
0.456431 	99997.6 	1.161 	-4.59888e-13 	-1.1081e-14 	1.1081e-14
0.457431 	99997.6 	1.161 	-1.09569e-12 	-1.76911e-14 	1.76911e-14
0.458431 	99997.6 	1.161 	-6.34591e-12 	-2.6417e-14 	2.6417e-14
0.459431 	99997.6 	1.161 	-9.3473e-12 	-2.8668e-14 	2.8668e-14
0.46043 	99997.6 	1.161 	-9.47692e-12 	-2.81687e-14 	2.81687e-14
0.46143 	99997.6 	1.161 	-6.23146e-12 	-2.53303e-14 	2.53303e-14
0.46243 	99997.6 	1.161 	-1.65338e-11 	-1.60813e-14 	1.60813e-14
0.46343 	99997.6 	1.161 	-1.98415e-11 	-8.88442e-15 	8.88442e-15
0.46443 	99997.6 	1.161 	-9.33624e-12 	-3.8172e-15 	3.8172e-15
0.46543 	99997.6 	1.161 	-9.18193e-12 	-8.61678e-16 	8.61678e-16
0.466429 	99997.6 	1.161 	6.45627e-13 	0 	0
0.467429 	99997.6 	1.161 	2.3888e-11 	0 	0
0.468429 	99997.6 	1.161 	1.19754e-11 	0 	0
0.469429 	99997.6 	1.161 	-8.3464e-12 	0 	0
0.470429 	99997.6 	1.161 	-1.62931e-11 	0 	0
0.471429 	99997.6 	1.161 	-7.7716e-12 	6.73757e-16 	-6.73757e-16
0.472429 	99997.6 	1.161 	8.45982e-12 	3.28873e-15 	-3.28873e-15
0.473428 	99997.6 	1.161 	-2.03283e-12 	-1.70447e-16 	1.70447e-16
0.474428 	99997.6 	1.161 	-1.52767e-11 	-5.6246e-15 	5.6246e-15
0.475428 	99997.6 	1.161 	-3.49157e-12 	-5.04451e-15 	5.04451e-15
0.476428 	99997.6 	1.161 	1.64059e-11 	-6.46045e-15 	6.46045e-15
0.477428 	99997.6 	1.161 	2.58314e-11 	-1.91121e-15 	1.91121e-15
0.478428 	99997.6 	1.161 	1.88756e-11 	6.41744e-16 	-6.41744e-16
0.479427 	99997.6 	1.161 	-9.72283e-12 	3.70505e-15 	-3.70505e-15
0.480427 	99997.6 	1.161 	-3.58985e-11 	8.70948e-16 	-8.70948e-16
0.481427 	99997.6 	1.161 	-3.82102e-11 	0 	0
0.482427 	99997.6 	1.161 	-2.56005e-11 	0 	0
0.483427 	99997.6 	1.161 	-2.51034e-11 	-3.41019e-16 	3.41019e-16
0.484427 	99997.6 	1.161 	-2.855e-11 	-2.60977e-15 	2.60977e-15
0.485427 	99997.6 	1.161 	-9.63818e-12 	-6.78995e-15 	6.78995e-15
0.486426 	99997.6 	1.161 	9.55427e-12 	-5.21218e-15 	5.21218e-15
0.487426 	99997.6 	1.161 	9.68522e-12 	-9.35784e-15 	9.35784e-15
0.488426 	99997.6 	1.161 	-6.32368e-12 	-1.53836e-14 	1.53836e-14
0.489426 	99997.6 	1.161 	-2.20264e-11 	-2.32236e-14 	2.32236e-14
0.490426 	99997.6 	1.161 	-1.58374e-11 	-2.53833e-14 	2.53833e-14
0.491426 	99997.6 	1.161 	-2.35819e-13 	-2.35419e-14 	2.35419e-14
0.492425 	99997.6 	1.161 	1.21443e-11 	-1.61462e-14 	1.61462e-14
0.493425 	99997.6 	1.161 	1.68826e-11 	-1.05699e-14 	1.05699e-14
0.494425 	99997.6 	1.161 	1.71109e-11 	-6.86811e-15 	6.86811e-15
0.495425 	99997.6 	1.161 	3.02396e-11 	-5.02586e-15 	5.02586e-15
0.496425 	99997.6 	1.161 	2.97263e-11 	-5.02812e-15 	5.02812e-15