/*--------------------------------*- C++ -*----------------------------------*\
| =========                 |                                                 |
| \\      /  F ield         | OpenFOAM: The Open Source CFD Toolbox           |
|  \\    /   O peration     | Version:  2312                                  |
|   \\  /    A nd           | Website:  www.openfoam.com                      |
|    \\/     M anipulation  |                                                 |
\*---------------------------------------------------------------------------*/
FoamFile
{
    version     2.0;
    format      ascii;
    arch        "LSB;label=32;scalar=64";
    class       volScalarField;
    location    "4e-05";
    object      p;
}
// * * * * * * * * * * * * * * * * * * * * * * * * * * * * * * * * * * * * * //

dimensions      [1 -1 -2 0 0 0 0];

internalField   nonuniform List<scalar> 
100
(
4.63368e+07
4.63368e+07
4.63368e+07
4.63368e+07
4.63368e+07
4.63368e+07
4.63368e+07
4.63368e+07
4.63368e+07
4.63368e+07
4.63368e+07
4.63368e+07
4.63368e+07
4.63368e+07
4.63368e+07
4.63368e+07
4.63368e+07
4.63368e+07
4.63368e+07
4.63368e+07
4.63368e+07
4.63368e+07
4.63368e+07
4.63368e+07
4.63368e+07
4.63368e+07
4.63368e+07
4.63368e+07
4.6337e+07
4.63384e+07
4.63562e+07
4.65674e+07
4.9005e+07
7.16757e+07
1.74888e+08
3.7511e+08
5.69512e+08
6.70842e+08
6.92467e+08
6.87594e+08
6.82135e+08
6.79841e+08
6.78896e+08
6.78151e+08
6.77579e+08
6.77492e+08
6.77968e+08
6.78805e+08
6.79885e+08
6.834e+08
7.30209e+08
6.95061e+08
6.84372e+08
6.83818e+08
6.84962e+08
6.86745e+08
6.89034e+08
6.91764e+08
6.94845e+08
6.98183e+08
7.01714e+08
7.05426e+08
7.09361e+08
7.13605e+08
7.18264e+08
7.23441e+08
7.29228e+08
7.35694e+08
7.42893e+08
7.50863e+08
7.59627e+08
7.69196e+08
7.79568e+08
7.90728e+08
8.02645e+08
8.1527e+08
8.28533e+08
8.42336e+08
8.56546e+08
8.70981e+08
8.85398e+08
8.99468e+08
9.12752e+08
9.24669e+08
9.34472e+08
9.41231e+08
9.43884e+08
9.41379e+08
9.32967e+08
9.18512e+08
8.9878e+08
8.75502e+08
8.51065e+08
8.27912e+08
8.07903e+08
7.9197e+08
7.80154e+08
7.71909e+08
7.66453e+08
7.63141e+08
)
;

boundaryField
{
    sides
    {
        type            zeroGradient;
    }
    empty
    {
        type            empty;
    }
}


// ************************************************************************* //
