/*--------------------------------*- C++ -*----------------------------------*\
| =========                 |                                                 |
| \\      /  F ield         | OpenFOAM: The Open Source CFD Toolbox           |
|  \\    /   O peration     | Version:  2312                                  |
|   \\  /    A nd           | Website:  www.openfoam.com                      |
|    \\/     M anipulation  |                                                 |
\*---------------------------------------------------------------------------*/
FoamFile
{
    version     2.0;
    format      ascii;
    arch        "LSB;label=32;scalar=64";
    class       volScalarField;
    location    "4e-05";
    object      rho;
}
// * * * * * * * * * * * * * * * * * * * * * * * * * * * * * * * * * * * * * //

dimensions      [1 -3 0 0 0 0 0];

internalField   nonuniform List<scalar> 
100
(
1.16102
1.16102
1.16102
1.16102
1.16102
1.16102
1.16102
1.16102
1.16102
1.16102
1.16102
1.16102
1.16102
1.16102
1.16102
1.16102
1.16102
1.16102
1.16102
1.16102
1.16102
1.16102
1.16102
1.16102
1.16102
1.16102
1.16102
1.16102
1.16102
1.16104
1.1613
1.16411
1.18994
1.34332
1.76917
2.31026
2.59906
2.47935
2.10143
1.6774
1.30042
0.993025
0.753243
0.571368
0.435708
0.335266
0.260913
0.205621
0.164237
0.133329
0.114354
0.106457
0.10482
0.104735
0.10491
0.105184
0.105534
0.105952
0.106424
0.106935
0.107476
0.108045
0.108647
0.109297
0.110011
0.110804
0.11169
0.112681
0.113783
0.115004
0.116346
0.117812
0.119401
0.12111
0.122935
0.124869
0.1269
0.129014
0.131191
0.133402
0.13561
0.137765
0.139799
0.141625
0.143126
0.144161
0.144568
0.144184
0.142896
0.140682
0.137659
0.134094
0.130351
0.126805
0.12374
0.1213
0.11949
0.118227
0.117392
0.116885
)
;

boundaryField
{
    sides
    {
        type            zeroGradient;
    }
    empty
    {
        type            empty;
    }
}


// ************************************************************************* //
