/*--------------------------------*- C++ -*----------------------------------*\
| =========                 |                                                 |
| \\      /  F ield         | OpenFOAM: The Open Source CFD Toolbox           |
|  \\    /   O peration     | Version:  2312                                  |
|   \\  /    A nd           | Website:  www.openfoam.com                      |
|    \\/     M anipulation  |                                                 |
\*---------------------------------------------------------------------------*/
FoamFile
{
    version     2.0;
    format      ascii;
    arch        "LSB;label=32;scalar=64";
    class       volScalarField;
    location    "4e-05";
    object      T;
}
// * * * * * * * * * * * * * * * * * * * * * * * * * * * * * * * * * * * * * //

dimensions      [0 0 0 1 0 0 0];

internalField   nonuniform List<scalar> 
100
(
34843.2
34843.2
34843.2
34843.2
34843.2
34843.2
34843.2
34843.2
34843.2
34843.2
34843.2
34843.2
34843.2
34843.2
34843.2
34843.2
34843.2
34843.2
34843.2
34843.2
34843.2
34843.2
34843.2
34843.2
34843.2
34843.2
34843.2
34843.2
34843.2
34843.7
34849.4
34923.8
35954
46582.5
86301.9
141752
191301
236218
287684
357871
457950
597693
786863
1.0362e+06
1.35768e+06
1.76419e+06
2.26853e+06
2.88211e+06
3.61406e+06
4.4749e+06
5.57478e+06
5.70006e+06
5.70006e+06
5.70006e+06
5.70006e+06
5.70006e+06
5.70006e+06
5.70006e+06
5.70006e+06
5.70006e+06
5.70006e+06
5.70006e+06
5.70006e+06
5.70006e+06
5.70006e+06
5.70006e+06
5.70006e+06
5.70006e+06
5.70006e+06
5.70006e+06
5.70006e+06
5.70006e+06
5.70006e+06
5.70006e+06
5.70006e+06
5.70006e+06
5.70006e+06
5.70006e+06
5.70006e+06
5.70006e+06
5.70006e+06
5.70006e+06
5.70006e+06
5.70006e+06
5.70006e+06
5.70006e+06
5.70006e+06
5.70006e+06
5.70006e+06
5.70006e+06
5.70006e+06
5.70006e+06
5.70006e+06
5.70006e+06
5.70006e+06
5.70006e+06
5.70006e+06
5.70006e+06
5.70006e+06
5.70006e+06
)
;

boundaryField
{
    sides
    {
        type            zeroGradient;
    }
    empty
    {
        type            empty;
    }
}


// ************************************************************************* //
