/*--------------------------------*- C++ -*----------------------------------*\
| =========                 |                                                 |
| \\      /  F ield         | OpenFOAM: The Open Source CFD Toolbox           |
|  \\    /   O peration     | Version:  2312                                  |
|   \\  /    A nd           | Website:  www.openfoam.com                      |
|    \\/     M anipulation  |                                                 |
\*---------------------------------------------------------------------------*/
FoamFile
{
    version     2.0;
    format      ascii;
    arch        "LSB;label=32;scalar=64";
    class       volScalarField;
    location    "4e-05";
    object      thermo:e;
}
// * * * * * * * * * * * * * * * * * * * * * * * * * * * * * * * * * * * * * //

dimensions      [0 2 -2 0 0 0 0];

internalField   nonuniform List<scalar> 
100
(
5.95678e+07
5.95678e+07
5.95678e+07
5.95678e+07
5.95678e+07
5.95678e+07
5.95678e+07
5.95678e+07
5.95678e+07
5.95678e+07
5.95678e+07
5.95678e+07
5.95678e+07
5.95678e+07
5.95678e+07
5.95678e+07
5.95678e+07
5.95678e+07
5.95678e+07
5.95678e+07
5.95678e+07
5.95678e+07
5.95678e+07
5.95678e+07
5.95678e+07
5.95678e+07
5.95679e+07
5.95679e+07
5.95679e+07
5.95687e+07
5.95784e+07
5.97056e+07
6.14668e+07
7.96373e+07
1.47541e+08
2.42338e+08
3.27048e+08
4.03838e+08
4.91823e+08
6.11816e+08
7.82911e+08
1.02182e+09
1.34522e+09
1.77148e+09
2.32108e+09
3.01606e+09
3.87827e+09
4.92724e+09
6.17858e+09
7.65028e+09
9.53062e+09
1.21216e+10
1.51872e+10
1.83503e+10
2.14575e+10
2.44525e+10
2.72979e+10
2.99644e+10
3.24298e+10
3.4679e+10
3.67037e+10
3.85031e+10
4.00827e+10
4.14536e+10
4.26313e+10
4.36337e+10
4.44807e+10
4.51919e+10
4.57867e+10
4.62831e+10
4.66976e+10
4.7045e+10
4.7338e+10
4.75876e+10
4.78029e+10
4.79916e+10
4.81596e+10
4.83115e+10
4.84507e+10
4.85794e+10
4.86986e+10
4.88082e+10
4.8907e+10
4.89925e+10
4.90608e+10
4.91068e+10
4.91238e+10
4.91051e+10
4.90447e+10
4.89402e+10
4.87947e+10
4.86183e+10
4.84277e+10
4.8242e+10
4.80775e+10
4.79442e+10
4.78441e+10
4.77736e+10
4.77268e+10
4.76984e+10
)
;

boundaryField
{
    sides
    {
        type            zeroGradient;
    }
    empty
    {
        type            empty;
    }
}


// ************************************************************************* //
