/*--------------------------------*- C++ -*----------------------------------*\
| =========                 |                                                 |
| \\      /  F ield         | OpenFOAM: The Open Source CFD Toolbox           |
|  \\    /   O peration     | Version:  2312                                  |
|   \\  /    A nd           | Website:  www.openfoam.com                      |
|    \\/     M anipulation  |                                                 |
\*---------------------------------------------------------------------------*/
FoamFile
{
    version     2.0;
    format      ascii;
    arch        "LSB;label=32;scalar=64";
    class       volScalarField;
    location    "4e-05";
    object      thermo:e;
}
// * * * * * * * * * * * * * * * * * * * * * * * * * * * * * * * * * * * * * //

dimensions      [0 2 -2 0 0 0 0];

internalField   nonuniform List<scalar> 
100
(
3.76955e+16
3.76955e+16
3.76955e+16
3.76955e+16
3.76955e+16
3.76955e+16
3.76955e+16
3.76955e+16
3.76955e+16
3.76955e+16
3.76955e+16
3.76955e+16
3.76955e+16
3.76955e+16
3.76955e+16
3.76955e+16
3.76955e+16
3.76955e+16
3.76955e+16
3.76955e+16
3.76955e+16
3.76955e+16
3.76955e+16
3.76955e+16
3.76955e+16
3.76955e+16
3.76955e+16
3.76955e+16
3.76955e+16
3.76955e+16
3.76955e+16
3.76955e+16
3.76955e+16
3.76955e+16
3.76955e+16
3.76955e+16
3.76955e+16
3.76955e+16
3.76955e+16
3.76955e+16
3.76955e+16
3.76955e+16
3.76955e+16
3.76955e+16
3.77025e+16
9.14746e+16
1.24241e+20
7.97946e+22
1.55732e+25
1.50137e+27
2.1603e+29
3.17725e+29
3.22215e+29
3.22283e+29
3.22284e+29
3.22284e+29
3.22284e+29
3.22284e+29
3.22284e+29
3.22284e+29
3.22284e+29
3.22284e+29
3.22284e+29
3.22284e+29
3.22284e+29
3.22284e+29
3.22284e+29
3.22284e+29
3.22284e+29
3.22284e+29
3.22284e+29
3.22284e+29
3.22284e+29
3.22284e+29
3.22284e+29
3.22284e+29
3.22284e+29
3.22284e+29
3.22284e+29
3.22284e+29
3.22284e+29
3.22284e+29
3.22284e+29
3.22284e+29
3.22284e+29
3.22284e+29
3.22284e+29
3.22284e+29
3.22284e+29
3.22284e+29
3.22284e+29
3.22284e+29
3.22284e+29
3.22284e+29
3.22284e+29
3.22284e+29
3.22284e+29
3.22284e+29
3.22284e+29
3.22284e+29
)
;

boundaryField
{
    sides
    {
        type            zeroGradient;
    }
    empty
    {
        type            empty;
    }
}


// ************************************************************************* //
