/*--------------------------------*- C++ -*----------------------------------*\
| =========                 |                                                 |
| \\      /  F ield         | OpenFOAM: The Open Source CFD Toolbox           |
|  \\    /   O peration     | Version:  2312                                  |
|   \\  /    A nd           | Website:  www.openfoam.com                      |
|    \\/     M anipulation  |                                                 |
\*---------------------------------------------------------------------------*/
FoamFile
{
    version     2.0;
    format      ascii;
    arch        "LSB;label=32;scalar=64";
    class       volVectorField;
    location    "4e-05";
    object      U;
}
// * * * * * * * * * * * * * * * * * * * * * * * * * * * * * * * * * * * * * //

dimensions      [0 1 -1 0 0 0 0];

internalField   nonuniform List<vector> 
100
(
(2.93111e-12 0 0)
(-2.433e-12 0 0)
(2.71615e-13 0 0)
(2.96799e-12 0 0)
(-1.28272e-12 0 0)
(8.90785e-13 0 0)
(-2.86707e-12 0 0)
(-3.43699e-14 0 0)
(2.45853e-12 0 0)
(-1.69598e-12 0 0)
(-4.12851e-12 0 0)
(-1.08011e-12 0 0)
(-1.60644e-12 0 0)
(-4.96004e-12 0 0)
(3.26083e-12 0 0)
(1.47669e-12 0 0)
(5.72443e-13 0 0)
(-7.60139e-13 0 0)
(-4.59058e-12 0 0)
(2.86687e-12 0 0)
(-7.40463e-12 0 0)
(-1.64663e-10 0 0)
(-2.39968e-09 0 0)
(-3.39912e-08 0 0)
(-4.69747e-07 0 0)
(-6.34047e-06 0 0)
(-8.36373e-05 0 0)
(-0.001079 0 0)
(-0.0136251 0 0)
(-0.168553 0 0)
(-2.04371 0 0)
(-24.1627 0 0)
(-261.141 0 0)
(-1907.62 0 0)
(-6629.74 0 0)
(-12452.2 0 0)
(-16793.8 0 0)
(-19104.1 0 0)
(-19823.6 0 0)
(-19785.5 0 0)
(-19621.3 0 0)
(-19506.6 0 0)
(-19419 0 0)
(-19324.6 0 0)
(-19220.8 0 0)
(-19125.2 0 0)
(-19051.4 0 0)
(-18997.8 0 0)
(-18946.4 0 0)
(-18710.9 0 0)
(-14846.1 0 0)
(-9690.92 0 0)
(-8272.36 0 0)
(-8001.51 0 0)
(-7835.62 0 0)
(-7631.81 0 0)
(-7373.09 0 0)
(-7063.71 0 0)
(-6714.16 0 0)
(-6335.82 0 0)
(-5936.69 0 0)
(-5518.63 0 0)
(-5077.07 0 0)
(-4602.76 0 0)
(-4084.46 0 0)
(-3511.39 0 0)
(-2874.75 0 0)
(-2168.19 0 0)
(-1387.81 0 0)
(-531.788 0 0)
(399.909 0 0)
(1405.7 0 0)
(2482.5 0 0)
(3625.74 0 0)
(4829.31 0 0)
(6085.44 0 0)
(7384.49 0 0)
(8714.63 0 0)
(10061.3 0 0)
(11406.3 0 0)
(12726.8 0 0)
(13993.9 0 0)
(15170.2 0 0)
(16208.2 0 0)
(17047.3 0 0)
(17613.4 0 0)
(17820.9 0 0)
(17583.5 0 0)
(16834.6 0 0)
(15551.2 0 0)
(13779.2 0 0)
(11647.6 0 0)
(9354.62 0 0)
(7124.05 0 0)
(5147.19 0 0)
(3538.19 0 0)
(2323.99 0 0)
(1465.63 0 0)
(892.516 0 0)
(542.497 0 0)
)
;

boundaryField
{
    sides
    {
        type            zeroGradient;
    }
    empty
    {
        type            empty;
    }
}


// ************************************************************************* //
