/*--------------------------------*- C++ -*----------------------------------*\
| =========                 |                                                 |
| \\      /  F ield         | OpenFOAM: The Open Source CFD Toolbox           |
|  \\    /   O peration     | Version:  2312                                  |
|   \\  /    A nd           | Website:  www.openfoam.com                      |
|    \\/     M anipulation  |                                                 |
\*---------------------------------------------------------------------------*/
FoamFile
{
    version     2.0;
    format      ascii;
    arch        "LSB;label=32;scalar=64";
    class       volVectorField;
    location    "4e-05";
    object      U;
}
// * * * * * * * * * * * * * * * * * * * * * * * * * * * * * * * * * * * * * //

dimensions      [0 1 -1 0 0 0 0];

internalField   nonuniform List<vector> 
100
(
(8.34173e-17 0 0)
(1.98186e-16 0 0)
(8.55452e-17 0 0)
(-1.66778e-16 0 0)
(-2.00371e-16 0 0)
(8.34173e-17 0 0)
(1.98186e-16 0 0)
(9.5476e-17 0 0)
(-2.08117e-16 0 0)
(-5.0027e-17 0 0)
(1.7797e-16 0 0)
(-1.2249e-17 0 0)
(0 0 0)
(5.18078e-17 0 0)
(-3.95588e-17 0 0)
(-1.93921e-17 0 0)
(7.14308e-18 0 0)
(0 0 0)
(5.18078e-17 0 0)
(-3.95588e-17 0 0)
(0 0 0)
(-1.2249e-17 0 0)
(0 0 0)
(5.18078e-17 0 0)
(-5.89509e-17 0 0)
(8.94556e-17 0 0)
(-1.6176e-16 0 0)
(-2.70145e-17 0 0)
(1.58269e-16 0 0)
(5.30473e-17 0 0)
(8.98727e-17 0 0)
(0 0 0)
(0 0 0)
(-3.34435e-17 0 0)
(-1.33555e-17 0 0)
(4.6799e-17 0 0)
(0 0 0)
(0 0 0)
(-3.34435e-17 0 0)
(-1.454e-16 0 0)
(-1.75465e-17 0 0)
(-5.50304e-14 0 0)
(-2.85015e-10 0 0)
(-1.15384e-06 0 0)
(-0.00480001 0 0)
(-0.391199 0 0)
(-2.84856 0 0)
(-11.966 0 0)
(-31.0166 0 0)
(-12.9267 0 0)
(64.2656 0 0)
(9.41251 0 0)
(0.349554 0 0)
(0.00963776 0 0)
(0.000187422 0 0)
(2.80683e-06 0 0)
(3.26588e-08 0 0)
(3.01658e-10 0 0)
(2.07228e-12 0 0)
(2.57655e-14 0 0)
(-4.00702e-14 0 0)
(-1.25903e-14 0 0)
(0 0 0)
(0 0 0)
(5.8592e-14 0 0)
(-4.69679e-14 0 0)
(-1.16241e-14 0 0)
(0 0 0)
(0 0 0)
(7.45306e-14 0 0)
(1.25903e-14 0 0)
(1.80836e-13 0 0)
(2.31575e-13 0 0)
(8.78521e-14 0 0)
(-2.08991e-13 0 0)
(-2.91271e-13 0 0)
(-5.34168e-14 0 0)
(0 0 0)
(4.17506e-13 0 0)
(-7.28178e-14 0 0)
(-2.91271e-13 0 0)
(-5.13819e-14 0 0)
(-2.03492e-15 0 0)
(4.17506e-13 0 0)
(-7.28178e-14 0 0)
(-2.91271e-13 0 0)
(-5.13819e-14 0 0)
(1.02764e-14 0 0)
(4.05195e-13 0 0)
(1.724e-13 0 0)
(-3.50163e-13 0 0)
(-2.75491e-13 0 0)
(3.00347e-13 0 0)
(2.64185e-13 0 0)
(-3.39739e-14 0 0)
(-3.19747e-13 0 0)
(-1.99503e-13 0 0)
(2.8904e-13 0 0)
(2.64185e-13 0 0)
(-3.39739e-14 0 0)
)
;

boundaryField
{
    sides
    {
        type            zeroGradient;
    }
    empty
    {
        type            empty;
    }
}


// ************************************************************************* //
