/*--------------------------------*- C++ -*----------------------------------*\
| =========                 |                                                 |
| \\      /  F ield         | OpenFOAM: The Open Source CFD Toolbox           |
|  \\    /   O peration     | Version:  2312                                  |
|   \\  /    A nd           | Website:  www.openfoam.com                      |
|    \\/     M anipulation  |                                                 |
\*---------------------------------------------------------------------------*/
FoamFile
{
    version     2.0;
    format      ascii;
    arch        "LSB;label=32;scalar=64";
    class       volScalarField;
    location    "0.009";
    object      p;
}
// * * * * * * * * * * * * * * * * * * * * * * * * * * * * * * * * * * * * * //

dimensions      [1 -1 -2 0 0 0 0];

internalField   nonuniform List<scalar> 
100
(
100202
100198
100190
100175
100150
100109
100041
99936.1
99777.5
99546.6
99222
98781.3
98202.7
97467.5
96561.5
95477.3
94213.7
92776.8
91177.8
89432.6
87559.8
85579.4
83511.6
81375.8
79190
76970.7
74732.4
72487.8
70247.7
68021.6
65816.6
63642.4
61493.6
59409.1
57295.4
55400.8
53183.8
51698.2
49199.2
48140.7
45676.7
44467.3
42590.8
41081.9
39543
38094.5
36719.7
35414.6
34189.9
33060.7
32040.3
31140.5
30379
29772.4
29314.8
28980.8
28755.4
28639.8
28615.2
28621.2
28596.3
28535.6
28486.8
28498.2
28567.2
28637.2
28643.5
28576.4
28478.6
28396.4
28358.1
28371.2
28425
28495.7
28557.9
28601.9
28622.8
28623.5
28611.1
28593
28574.6
28559
28547.2
28539
28533.8
28530.8
28529.3
28529.1
28530
28531.3
28530.7
28524.4
28511.2
28506.1
28558.9
28742.9
29026.3
29042.2
27863.3
25310.3
)
;

boundaryField
{
    sides
    {
        type            zeroGradient;
    }
    empty
    {
        type            empty;
    }
}


// ************************************************************************* //
