/*--------------------------------*- C++ -*----------------------------------*\
| =========                 |                                                 |
| \\      /  F ield         | OpenFOAM: The Open Source CFD Toolbox           |
|  \\    /   O peration     | Version:  2312                                  |
|   \\  /    A nd           | Website:  www.openfoam.com                      |
|    \\/     M anipulation  |                                                 |
\*---------------------------------------------------------------------------*/
FoamFile
{
    version     2.0;
    format      ascii;
    arch        "LSB;label=32;scalar=64";
    class       volScalarField;
    location    "0.009";
    object      rho;
}
// * * * * * * * * * * * * * * * * * * * * * * * * * * * * * * * * * * * * * //

dimensions      [1 -3 0 0 0 0 0];

internalField   nonuniform List<scalar> 
100
(
1.16097
1.16094
1.16087
1.16074
1.16052
1.16015
1.15956
1.15864
1.15726
1.15526
1.15245
1.14864
1.14365
1.13732
1.12953
1.1202
1.10933
1.09695
1.08314
1.06801
1.05172
1.03441
1.01624
0.997355
0.977901
0.958006
0.937789
0.917351
0.896784
0.876166
0.855566
0.835046
0.814645
0.794432
0.774413
0.754612
0.735271
0.715691
0.697468
0.678326
0.660251
0.64333
0.624859
0.608574
0.592369
0.5766
0.561213
0.546603
0.53308
0.520643
0.509213
0.498873
0.489847
0.48242
0.477027
0.474008
0.472768
0.471534
0.469018
0.466275
0.465838
0.468608
0.471906
0.471521
0.466153
0.45938
0.456835
0.461819
0.472378
0.481337
0.480061
0.463725
0.433937
0.396824
0.359115
0.32559
0.298386
0.277772
0.263005
0.252942
0.246405
0.242352
0.239958
0.238611
0.237893
0.237533
0.237368
0.237304
0.237291
0.237301
0.237309
0.237286
0.237209
0.237136
0.237343
0.238359
0.240455
0.242034
0.238603
0.232916
)
;

boundaryField
{
    sides
    {
        type            zeroGradient;
    }
    empty
    {
        type            empty;
    }
}


// ************************************************************************* //
