/*--------------------------------*- C++ -*----------------------------------*\
| =========                 |                                                 |
| \\      /  F ield         | OpenFOAM: The Open Source CFD Toolbox           |
|  \\    /   O peration     | Version:  2312                                  |
|   \\  /    A nd           | Website:  www.openfoam.com                      |
|    \\/     M anipulation  |                                                 |
\*---------------------------------------------------------------------------*/
FoamFile
{
    version     2.0;
    format      ascii;
    arch        "LSB;label=32;scalar=64";
    class       volScalarField;
    location    "0.009";
    object      T;
}
// * * * * * * * * * * * * * * * * * * * * * * * * * * * * * * * * * * * * * //

dimensions      [0 0 0 1 0 0 0];

internalField   nonuniform List<scalar> 
100
(
299.997
299.994
299.988
299.978
299.96
299.93
299.881
299.803
299.685
299.51
299.262
298.92
298.465
297.879
297.146
296.255
295.2
293.979
292.596
291.06
289.379
287.567
285.637
283.602
281.474
279.268
276.992
274.658
272.275
269.851
267.39
264.911
262.376
259.932
257.164
255.185
251.417
251.081
245.187
246.682
240.464
240.254
236.917
234.639
232.028
229.642
227.423
225.203
222.93
220.717
218.705
216.969
215.564
214.512
213.603
212.514
211.415
211.116
212.065
213.358
213.372
211.66
209.822
210.078
213.011
216.682
217.937
215.079
209.552
205.058
205.326
212.658
227.686
249.6
276.411
305.342
333.423
358.176
378.124
392.917
403.083
409.598
413.515
415.731
416.91
417.497
417.765
417.875
417.911
417.912
417.889
417.838
417.78
417.834
418.244
419.142
419.586
417.077
405.9
377.712
)
;

boundaryField
{
    sides
    {
        type            zeroGradient;
    }
    empty
    {
        type            empty;
    }
}


// ************************************************************************* //
