/*--------------------------------*- C++ -*----------------------------------*\
| =========                 |                                                 |
| \\      /  F ield         | OpenFOAM: The Open Source CFD Toolbox           |
|  \\    /   O peration     | Version:  2312                                  |
|   \\  /    A nd           | Website:  www.openfoam.com                      |
|    \\/     M anipulation  |                                                 |
\*---------------------------------------------------------------------------*/
FoamFile
{
    version     2.0;
    format      ascii;
    arch        "LSB;label=32;scalar=64";
    class       volScalarField;
    location    "0.009";
    object      thermo:e;
}
// * * * * * * * * * * * * * * * * * * * * * * * * * * * * * * * * * * * * * //

dimensions      [0 2 -2 0 0 0 0];

internalField   nonuniform List<scalar> 
100
(
215758
215756
215751
215744
215731
215710
215674
215618
215533
215408
215229
214983
214656
214235
213708
213067
212308
211430
210435
209330
208121
206818
205430
203966
202436
200849
199213
197534
195820
194077
192307
190524
188701
186943
184952
183529
180819
180577
176338
177414
172941
172791
170391
168752
166875
165158
163563
161966
160331
158739
157293
156044
155034
154277
153623
152840
152049
151834
152517
153447
153457
152226
150904
151088
153198
155837
156740
154685
150710
147478
147670
152943
163752
179512
198795
219602
239798
257600
271947
282586
289897
294583
297400
298994
299842
300264
300457
300536
300561
300563
300546
300509
300467
300506
300801
301447
301766
299962
291923
271651
)
;

boundaryField
{
    sides
    {
        type            zeroGradient;
    }
    empty
    {
        type            empty;
    }
}


// ************************************************************************* //
