/*--------------------------------*- C++ -*----------------------------------*\
| =========                 |                                                 |
| \\      /  F ield         | OpenFOAM: The Open Source CFD Toolbox           |
|  \\    /   O peration     | Version:  2312                                  |
|   \\  /    A nd           | Website:  www.openfoam.com                      |
|    \\/     M anipulation  |                                                 |
\*---------------------------------------------------------------------------*/
FoamFile
{
    version     2.0;
    format      ascii;
    arch        "LSB;label=32;scalar=64";
    class       volVectorField;
    location    "0.009";
    object      U;
}
// * * * * * * * * * * * * * * * * * * * * * * * * * * * * * * * * * * * * * //

dimensions      [0 1 -1 0 0 0 0];

internalField   nonuniform List<vector> 
100
(
(0.0112061 0 0)
(0.0224244 0 0)
(0.0434986 0 0)
(0.0806594 0 0)
(0.144608 0 0)
(0.251269 0 0)
(0.423364 0 0)
(0.69174 0 0)
(1.0961 0 0)
(1.68471 0 0)
(2.51268 0 0)
(3.6389 0 0)
(5.12173 0 0)
(7.01421 0 0)
(9.35962 0 0)
(12.1882 0 0)
(15.5156 0 0)
(19.3427 0 0)
(23.6576 0 0)
(28.4381 0 0)
(33.6542 0 0)
(39.272 0 0)
(45.255 0 0)
(51.5671 0 0)
(58.1733 0 0)
(65.041 0 0)
(72.1402 0 0)
(79.4437 0 0)
(86.9273 0 0)
(94.5696 0 0)
(102.35 0 0)
(110.257 0 0)
(118.255 0 0)
(126.393 0 0)
(134.487 0 0)
(142.929 0 0)
(150.902 0 0)
(159.713 0 0)
(167.679 0 0)
(176.193 0 0)
(185.007 0 0)
(192.696 0 0)
(201.656 0 0)
(209.815 0 0)
(218.081 0 0)
(226.165 0 0)
(234.161 0 0)
(241.989 0 0)
(249.483 0 0)
(256.507 0 0)
(262.961 0 0)
(268.721 0 0)
(273.656 0 0)
(277.714 0 0)
(280.88 0 0)
(283.026 0 0)
(284.051 0 0)
(284.291 0 0)
(284.503 0 0)
(285.185 0 0)
(286.006 0 0)
(286.153 0 0)
(285.306 0 0)
(284.134 0 0)
(283.77 0 0)
(284.785 0 0)
(286.594 0 0)
(287.852 0 0)
(287.463 0 0)
(285.24 0 0)
(281.809 0 0)
(278.13 0 0)
(275.085 0 0)
(273.244 0 0)
(272.794 0 0)
(273.603 0 0)
(275.309 0 0)
(277.44 0 0)
(279.568 0 0)
(281.403 0 0)
(282.818 0 0)
(283.814 0 0)
(284.461 0 0)
(284.855 0 0)
(285.08 0 0)
(285.202 0 0)
(285.267 0 0)
(285.304 0 0)
(285.331 0 0)
(285.351 0 0)
(285.342 0 0)
(285.266 0 0)
(285.114 0 0)
(285.064 0 0)
(285.659 0 0)
(287.528 0 0)
(289.43 0 0)
(284.409 0 0)
(258.134 0 0)
(209.366 0 0)
)
;

boundaryField
{
    sides
    {
        type            mywaveTransmissive;
        gamma           1.4;
        value           nonuniform List<vector> 2((174.384 0 0) (0.00795523 0 0));
    }
    empty
    {
        type            empty;
    }
}


// ************************************************************************* //
