/*--------------------------------*- C++ -*----------------------------------*\
| =========                 |                                                 |
| \\      /  F ield         | OpenFOAM: The Open Source CFD Toolbox           |
|  \\    /   O peration     | Version:  2312                                  |
|   \\  /    A nd           | Website:  www.openfoam.com                      |
|    \\/     M anipulation  |                                                 |
\*---------------------------------------------------------------------------*/
FoamFile
{
    version     2.0;
    format      ascii;
    arch        "LSB;label=32;scalar=64";
    class       volScalarField;
    location    "0.007";
    object      p;
}
// * * * * * * * * * * * * * * * * * * * * * * * * * * * * * * * * * * * * * //

dimensions      [1 -1 -2 0 0 0 0];

internalField   nonuniform List<scalar> 
100
(
100207
100207
100207
100207
100207
100207
100206
100205
100203
100198
100189
100171
100140
100085
99992.8
99845.1
99618
99283
98808.7
98163.8
97320.4
96257
94961.5
93432.1
91676.7
89712.4
87562.2
85253.4
82815
80275.9
77663.7
75003.8
72318.9
69628.9
66950.9
64299.5
61687.2
59124.2
56619.3
54179.7
51811.8
49520.9
47312
45189.8
43159.2
41225.3
39394.5
37674
36073
34603
33277.4
32111.4
31119.5
30312.3
29691.2
29244.2
28945.8
28761.6
28656.4
28600.5
28572.4
28559.1
28553.2
28550.9
28550.5
28551.1
28552.3
28554
28555.9
28558
28560.3
28562.7
28565.3
28568.1
28571
28574
28577.3
28580.8
28584.4
28588.3
28592.5
28597.5
28604.3
28610.3
28584.3
28383.2
27602.6
25567.1
21881
17290.7
13441.9
11282.2
10419.3
10138.5
10054.7
10030.4
10023.5
10021.5
10020.9
10020.8
)
;

boundaryField
{
    sides
    {
        type            zeroGradient;
    }
    empty
    {
        type            empty;
    }
}


// ************************************************************************* //
