/*--------------------------------*- C++ -*----------------------------------*\
| =========                 |                                                 |
| \\      /  F ield         | OpenFOAM: The Open Source CFD Toolbox           |
|  \\    /   O peration     | Version:  2312                                  |
|   \\  /    A nd           | Website:  www.openfoam.com                      |
|    \\/     M anipulation  |                                                 |
\*---------------------------------------------------------------------------*/
FoamFile
{
    version     2.0;
    format      ascii;
    arch        "LSB;label=32;scalar=64";
    class       volScalarField;
    location    "0.007";
    object      p;
}
// * * * * * * * * * * * * * * * * * * * * * * * * * * * * * * * * * * * * * //

dimensions      [1 -1 -2 0 0 0 0];

internalField   nonuniform List<scalar> 
100
(
355599
350003
344158
338219
332209
326147
320051
313934
307812
301695
295594
289520
283480
277482
271532
265637
259802
254032
248331
242703
237150
231677
226285
220978
215757
210624
205582
200631
195775
191013
186348
181782
177317
172955
168697
164548
160511
156588
152786
149109
145563
142157
138900
135801
132874
130131
127588
125258
123157
121297
119687
118327
117214
116332
115658
115163
114815
114580
114430
114338
114286
114260
114249
114247
114250
114257
114264
114273
114282
114290
114298
114306
114314
114322
114329
114337
114344
114353
114366
114387
114427
114501
114632
114844
115158
115579
116090
116652
117212
117717
118132
118439
118646
118770
118833
118857
118860
118851
118839
118825
)
;

boundaryField
{
    sides
    {
        type            zeroGradient;
    }
    empty
    {
        type            empty;
    }
}


// ************************************************************************* //
