/*--------------------------------*- C++ -*----------------------------------*\
| =========                 |                                                 |
| \\      /  F ield         | OpenFOAM: The Open Source CFD Toolbox           |
|  \\    /   O peration     | Version:  2212                                  |
|   \\  /    A nd           | Website:  www.openfoam.com                      |
|    \\/     M anipulation  |                                                 |
\*---------------------------------------------------------------------------*/
FoamFile
{
    version     2.0;
    format      ascii;
    arch        "LSB;label=32;scalar=64";
    class       volScalarField;
    location    "0.007";
    object      p;
}
// * * * * * * * * * * * * * * * * * * * * * * * * * * * * * * * * * * * * * //

dimensions      [1 -1 -2 0 0 0 0];

internalField   nonuniform List<scalar> 
100
(
99999.3
99999.3
99999.3
99999.2
99999.2
99998.9
99998.5
99997.4
99995.2
99990.6
99981.6
99964.5
99933.6
99879.5
99788.8
99643.3
99419
99087.7
98618.1
97978.8
97141.8
96085.4
94797.3
93275.2
91527.3
89570
87426.5
85123.9
82691.3
80157.5
77550.2
74894.9
72214.1
69527.9
66853.4
64205.4
61596.1
59036
56533.8
54096.8
51731.3
49442.7
47236
45115.9
43087.3
41155.4
39326.5
37608
36009
34541
33217.5
32053.6
31063.7
30258.4
29638.6
29192.4
28893.9
28709
28602.4
28544.7
28515
28500.2
28493.2
28490.3
28489.6
28490.1
28491.4
28493.1
28495.2
28497.5
28500
28502.6
28505.3
28508.2
28511.2
28514.5
28517.9
28521.5
28525.3
28529.4
28533.8
28539.1
28546.2
28552.4
28523.9
28310.2
27494.1
25396.7
21655.5
17070.3
13289.9
11202.5
10378.2
10111.5
10032.1
10009.1
10002.5
10000.7
10000.1
9999.99
)
;

boundaryField
{
    sides
    {
        type            zeroGradient;
    }
    empty
    {
        type            empty;
    }
}


// ************************************************************************* //
