/*--------------------------------*- C++ -*----------------------------------*\
| =========                 |                                                 |
| \\      /  F ield         | OpenFOAM: The Open Source CFD Toolbox           |
|  \\    /   O peration     | Version:  2312                                  |
|   \\  /    A nd           | Website:  www.openfoam.com                      |
|    \\/     M anipulation  |                                                 |
\*---------------------------------------------------------------------------*/
FoamFile
{
    version     2.0;
    format      ascii;
    arch        "LSB;label=32;scalar=64";
    class       volScalarField;
    location    "0.007";
    object      rho;
}
// * * * * * * * * * * * * * * * * * * * * * * * * * * * * * * * * * * * * * //

dimensions      [1 -3 0 0 0 0 0];

internalField   nonuniform List<scalar> 
100
(
1.16102
1.16102
1.16102
1.16102
1.16102
1.16102
1.16101
1.161
1.16098
1.16095
1.16087
1.16073
1.16046
1.16001
1.15925
1.15802
1.15614
1.15336
1.14941
1.14404
1.13699
1.12808
1.11717
1.10423
1.08929
1.07247
1.05392
1.03385
1.01247
0.990012
0.966679
0.942679
0.918196
0.893397
0.868429
0.843419
0.818482
0.793715
0.769207
0.745033
0.721265
0.697969
0.675208
0.653047
0.631555
0.61081
0.590901
0.571936
0.554046
0.537392
0.522161
0.508562
0.496799
0.487023
0.479266
0.473388
0.46906
0.465814
0.463113
0.460418
0.457198
0.452916
0.447034
0.439059
0.428625
0.415605
0.400179
0.38284
0.364323
0.34548
0.327148
0.310039
0.294674
0.281366
0.270233
0.26123
0.254193
0.248881
0.245015
0.242306
0.240484
0.239316
0.238613
0.238208
0.237805
0.236478
0.231766
0.219518
0.196936
0.167715
0.141695
0.126005
0.119329
0.117069
0.116383
0.116182
0.116125
0.116108
0.116104
0.116103
)
;

boundaryField
{
    sides
    {
        type            zeroGradient;
    }
    empty
    {
        type            empty;
    }
}


// ************************************************************************* //
