/*--------------------------------*- C++ -*----------------------------------*\
| =========                 |                                                 |
| \\      /  F ield         | OpenFOAM: The Open Source CFD Toolbox           |
|  \\    /   O peration     | Version:  2312                                  |
|   \\  /    A nd           | Website:  www.openfoam.com                      |
|    \\/     M anipulation  |                                                 |
\*---------------------------------------------------------------------------*/
FoamFile
{
    version     2.0;
    format      ascii;
    arch        "LSB;label=32;scalar=64";
    class       volScalarField;
    location    "0.007";
    object      rho;
}
// * * * * * * * * * * * * * * * * * * * * * * * * * * * * * * * * * * * * * //

dimensions      [1 -3 0 0 0 0 0];

internalField   nonuniform List<scalar> 
100
(
1.05983
1.04975
1.03914
1.02828
1.01721
1.00596
0.99456
0.983031
0.971397
0.95968
0.947898
0.936067
0.924203
0.91232
0.90043
0.888545
0.876676
0.864831
0.853022
0.841255
0.829538
0.81788
0.806287
0.794766
0.783323
0.771965
0.760697
0.749526
0.738458
0.727499
0.716656
0.705937
0.695348
0.6849
0.674601
0.664462
0.654496
0.644718
0.635143
0.625792
0.616687
0.607854
0.599326
0.591136
0.583327
0.575943
0.569034
0.562651
0.556844
0.551657
0.547124
0.54326
0.540057
0.537479
0.535467
0.533942
0.532812
0.531986
0.531379
0.53092
0.53055
0.530226
0.529915
0.529591
0.529232
0.528816
0.528316
0.527698
0.526915
0.525902
0.524572
0.522808
0.520463
0.517358
0.513287
0.508029
0.501366
0.493111
0.483133
0.471391
0.457947
0.442984
0.426787
0.409721
0.39218
0.374552
0.357174
0.340326
0.324233
0.309076
0.295006
0.282138
0.270552
0.260282
0.25132
0.243618
0.237101
0.231691
0.227372
0.224427
)
;

boundaryField
{
    sides
    {
        type            zeroGradient;
    }
    empty
    {
        type            empty;
    }
}


// ************************************************************************* //
