/*--------------------------------*- C++ -*----------------------------------*\
| =========                 |                                                 |
| \\      /  F ield         | OpenFOAM: The Open Source CFD Toolbox           |
|  \\    /   O peration     | Version:  2212                                  |
|   \\  /    A nd           | Website:  www.openfoam.com                      |
|    \\/     M anipulation  |                                                 |
\*---------------------------------------------------------------------------*/
FoamFile
{
    version     2.0;
    format      ascii;
    arch        "LSB;label=32;scalar=64";
    class       volScalarField;
    location    "0.007";
    object      rho;
}
// * * * * * * * * * * * * * * * * * * * * * * * * * * * * * * * * * * * * * //

dimensions      [1 -3 0 0 0 0 0];

internalField   nonuniform List<scalar> 
100
(
1.16102
1.16102
1.16102
1.16102
1.16102
1.16102
1.16101
1.161
1.16099
1.16095
1.16087
1.16073
1.16047
1.16003
1.15927
1.15806
1.1562
1.15344
1.14953
1.14419
1.13719
1.12831
1.11744
1.10454
1.08964
1.07284
1.05432
1.03427
1.0129
0.990438
0.967105
0.9431
0.918609
0.893798
0.868816
0.84379
0.818835
0.794049
0.76952
0.745326
0.721537
0.698219
0.675437
0.653256
0.631745
0.610981
0.591055
0.572076
0.554174
0.537511
0.522274
0.508674
0.496912
0.487138
0.479382
0.473501
0.469162
0.465896
0.463166
0.460435
0.457171
0.452839
0.446901
0.438863
0.428364
0.41528
0.399798
0.382417
0.363876
0.34503
0.326714
0.309636
0.294313
0.281053
0.269968
0.261012
0.254018
0.248743
0.244908
0.242224
0.240423
0.239271
0.238581
0.238185
0.237774
0.236375
0.231444
0.218796
0.195805
0.166499
0.140818
0.125577
0.119172
0.11702
0.116368
0.116178
0.116124
0.116108
0.116104
0.116102
)
;

boundaryField
{
    sides
    {
        type            zeroGradient;
    }
    empty
    {
        type            empty;
    }
}


// ************************************************************************* //
