/*--------------------------------*- C++ -*----------------------------------*\
| =========                 |                                                 |
| \\      /  F ield         | OpenFOAM: The Open Source CFD Toolbox           |
|  \\    /   O peration     | Version:  2312                                  |
|   \\  /    A nd           | Website:  www.openfoam.com                      |
|    \\/     M anipulation  |                                                 |
\*---------------------------------------------------------------------------*/
FoamFile
{
    version     2.0;
    format      ascii;
    arch        "LSB;label=32;scalar=64";
    class       volScalarField;
    location    "0.007";
    object      T;
}
// * * * * * * * * * * * * * * * * * * * * * * * * * * * * * * * * * * * * * //

dimensions      [0 0 0 1 0 0 0];

internalField   nonuniform List<scalar> 
100
(
282.48
280.705
278.835
276.917
274.956
272.958
270.927
268.866
266.779
264.67
262.542
260.396
258.237
256.065
253.884
251.694
249.498
247.298
245.095
242.89
240.686
238.482
236.282
234.085
231.893
229.707
227.529
225.359
223.2
221.052
218.916
216.795
214.69
212.603
210.535
208.491
206.472
204.481
202.523
200.603
198.724
196.894
195.12
193.411
191.775
190.224
188.77
187.426
186.204
185.116
184.172
183.375
182.727
182.222
181.847
181.586
181.421
181.332
181.3
181.312
181.356
181.424
181.513
181.621
181.75
181.903
182.088
182.314
182.599
182.965
183.442
184.074
184.916
186.038
187.526
189.478
192.009
195.239
199.293
204.296
210.367
217.614
226.13
235.985
247.213
259.794
273.639
288.577
304.354
320.655
337.131
353.425
369.204
384.171
398.083
410.753
422.051
431.875
440.032
445.754
)
;

boundaryField
{
    sides
    {
        type            zeroGradient;
    }
    empty
    {
        type            empty;
    }
}


// ************************************************************************* //
