/*--------------------------------*- C++ -*----------------------------------*\
| =========                 |                                                 |
| \\      /  F ield         | OpenFOAM: The Open Source CFD Toolbox           |
|  \\    /   O peration     | Version:  2212                                  |
|   \\  /    A nd           | Website:  www.openfoam.com                      |
|    \\/     M anipulation  |                                                 |
\*---------------------------------------------------------------------------*/
FoamFile
{
    version     2.0;
    format      ascii;
    arch        "LSB;label=32;scalar=64";
    class       volScalarField;
    location    "0.007";
    object      T;
}
// * * * * * * * * * * * * * * * * * * * * * * * * * * * * * * * * * * * * * //

dimensions      [0 0 0 1 0 0 0];

internalField   nonuniform List<scalar> 
100
(
300
300
300
300
300
300
299.999
299.998
299.996
299.993
299.985
299.97
299.944
299.897
299.82
299.695
299.502
299.217
298.813
298.261
297.536
296.615
295.484
294.136
292.571
290.797
288.825
286.671
284.353
281.891
279.302
276.604
273.814
270.946
268.016
265.034
262.012
258.961
255.889
252.807
249.723
246.646
243.586
240.553
237.559
234.619
231.751
228.976
226.323
223.827
221.53
219.483
217.74
216.35
215.348
214.74
214.51
214.631
215.094
215.934
217.249
219.214
222.072
226.116
231.653
238.955
248.22
259.518
272.761
287.683
303.837
320.625
337.35
353.302
367.847
380.512
391.036
399.378
405.688
410.241
413.378
415.445
416.751
417.533
417.838
417.162
413.768
404.297
385.219
357.103
328.721
310.719
303.325
300.967
300.277
300.079
300.022
300.006
300.002
300
)
;

boundaryField
{
    sides
    {
        type            zeroGradient;
    }
    empty
    {
        type            empty;
    }
}


// ************************************************************************* //
