/*--------------------------------*- C++ -*----------------------------------*\
| =========                 |                                                 |
| \\      /  F ield         | OpenFOAM: The Open Source CFD Toolbox           |
|  \\    /   O peration     | Version:  2312                                  |
|   \\  /    A nd           | Website:  www.openfoam.com                      |
|    \\/     M anipulation  |                                                 |
\*---------------------------------------------------------------------------*/
FoamFile
{
    version     2.0;
    format      ascii;
    arch        "LSB;label=32;scalar=64";
    class       volScalarField;
    location    "0.007";
    object      T;
}
// * * * * * * * * * * * * * * * * * * * * * * * * * * * * * * * * * * * * * //

dimensions      [0 0 0 1 0 0 0];

internalField   nonuniform List<scalar> 
100
(
300
300
300
300
300
300
299.999
299.998
299.996
299.992
299.984
299.97
299.943
299.896
299.817
299.69
299.496
299.209
298.801
298.245
297.516
296.59
295.455
294.103
292.535
290.757
288.782
286.626
284.307
281.844
279.254
276.556
273.766
270.899
267.97
264.989
261.969
258.919
255.849
252.769
249.687
246.613
243.555
240.525
237.534
234.596
231.731
228.959
226.308
223.813
221.518
219.471
217.728
216.338
215.334
214.726
214.496
214.617
215.079
215.916
217.223
219.175
222.012
226.027
231.526
238.784
248
259.246
272.441
287.321
303.446
320.219
336.946
352.917
367.494
380.2
390.77
399.158
405.509
410.099
413.265
415.355
416.678
417.475
417.802
417.189
413.965
404.83
386.194
358.348
329.737
311.221
303.5
301.019
300.292
300.083
300.024
300.007
300.002
300.001
)
;

boundaryField
{
    sides
    {
        type            zeroGradient;
    }
    empty
    {
        type            empty;
    }
}


// ************************************************************************* //
