/*--------------------------------*- C++ -*----------------------------------*\
| =========                 |                                                 |
| \\      /  F ield         | OpenFOAM: The Open Source CFD Toolbox           |
|  \\    /   O peration     | Version:  2312                                  |
|   \\  /    A nd           | Website:  www.openfoam.com                      |
|    \\/     M anipulation  |                                                 |
\*---------------------------------------------------------------------------*/
FoamFile
{
    version     2.0;
    format      ascii;
    arch        "LSB;label=32;scalar=64";
    class       volScalarField;
    location    "0.007";
    object      thermo:e;
}
// * * * * * * * * * * * * * * * * * * * * * * * * * * * * * * * * * * * * * //

dimensions      [0 2 -2 0 0 0 0];

internalField   nonuniform List<scalar> 
100
(
503238
500076
496745
493327
489834
486275
482656
478984
475267
471510
467718
463896
460049
456180
452294
448393
444481
440562
436637
432709
428782
424857
420936
417022
413117
409223
405343
401478
397631
393804
389999
386220
382470
378751
375069
371426
367829
364283
360795
357373
354027
350767
347607
344561
341647
338884
336294
333900
331723
329785
328102
326683
325528
324628
323960
323496
323202
323042
322986
323007
323085
323207
323366
323559
323788
324061
324389
324793
325300
325951
326802
327928
329428
331427
334077
337556
342064
347818
355040
363953
374768
387679
402850
420407
440409
462823
487489
514099
542206
571247
600599
629627
657737
684401
709184
731756
751883
769385
783917
794110
)
;

boundaryField
{
    sides
    {
        type            zeroGradient;
    }
    empty
    {
        type            empty;
    }
}


// ************************************************************************* //
