/*--------------------------------*- C++ -*----------------------------------*\
| =========                 |                                                 |
| \\      /  F ield         | OpenFOAM: The Open Source CFD Toolbox           |
|  \\    /   O peration     | Version:  2212                                  |
|   \\  /    A nd           | Website:  www.openfoam.com                      |
|    \\/     M anipulation  |                                                 |
\*---------------------------------------------------------------------------*/
FoamFile
{
    version     2.0;
    format      ascii;
    arch        "LSB;label=32;scalar=64";
    class       volScalarField;
    location    "0.007";
    object      thermo:e;
}
// * * * * * * * * * * * * * * * * * * * * * * * * * * * * * * * * * * * * * //

dimensions      [0 2 -2 0 0 0 0];

internalField   nonuniform List<scalar> 
100
(
215310
215310
215310
215310
215310
215310
215309
215309
215307
215305
215299
215289
215270
215236
215181
215091
214953
214748
214458
214062
213541
212880
212069
211102
209979
208705
207289
205744
204080
202313
200455
198519
196516
194458
192355
190215
188046
185856
183652
181440
179226
177018
174821
172645
170496
168386
166328
164336
162432
160641
158992
157523
156272
155275
154555
154119
153954
154041
154373
154976
155920
157330
159381
162284
166257
171498
178148
186256
195761
206470
218064
230112
242116
253565
264004
273093
280646
286634
291162
294430
296682
298165
299102
299664
299883
299397
296961
290164
276471
256293
235923
223003
217697
216004
215508
215367
215326
215315
215311
215310
)
;

boundaryField
{
    sides
    {
        type            zeroGradient;
    }
    empty
    {
        type            empty;
    }
}


// ************************************************************************* //
