/*--------------------------------*- C++ -*----------------------------------*\
| =========                 |                                                 |
| \\      /  F ield         | OpenFOAM: The Open Source CFD Toolbox           |
|  \\    /   O peration     | Version:  2312                                  |
|   \\  /    A nd           | Website:  www.openfoam.com                      |
|    \\/     M anipulation  |                                                 |
\*---------------------------------------------------------------------------*/
FoamFile
{
    version     2.0;
    format      ascii;
    arch        "LSB;label=32;scalar=64";
    class       volScalarField;
    location    "0.007";
    object      thermo:e;
}
// * * * * * * * * * * * * * * * * * * * * * * * * * * * * * * * * * * * * * //

dimensions      [0 2 -2 0 0 0 0];

internalField   nonuniform List<scalar> 
100
(
215760
215760
215760
215760
215760
215760
215759
215759
215757
215755
215749
215738
215719
215685
215628
215537
215397
215191
214898
214498
213973
213308
212492
211519
210391
209113
207692
206142
204474
202702
200839
198899
196893
194831
192724
190580
188408
186214
184007
181792
179575
177364
175165
172985
170834
168722
166661
164667
162761
160966
159316
157844
156590
155590
154869
154431
154266
154353
154685
155286
156227
157631
159671
162559
166514
171734
178361
186450
195940
206642
218238
230301
242332
253818
264301
273440
281042
287075
291642
294943
297220
298723
299675
300248
300483
300042
297724
291154
277751
257724
237147
223830
218277
216493
215970
215820
215777
215765
215761
215760
)
;

boundaryField
{
    sides
    {
        type            zeroGradient;
    }
    empty
    {
        type            empty;
    }
}


// ************************************************************************* //
