/*--------------------------------*- C++ -*----------------------------------*\
| =========                 |                                                 |
| \\      /  F ield         | OpenFOAM: The Open Source CFD Toolbox           |
|  \\    /   O peration     | Version:  2312                                  |
|   \\  /    A nd           | Website:  www.openfoam.com                      |
|    \\/     M anipulation  |                                                 |
\*---------------------------------------------------------------------------*/
FoamFile
{
    version     2.0;
    format      ascii;
    arch        "LSB;label=32;scalar=64";
    class       volVectorField;
    location    "0.007";
    object      U;
}
// * * * * * * * * * * * * * * * * * * * * * * * * * * * * * * * * * * * * * //

dimensions      [0 1 -1 0 0 0 0];

internalField   nonuniform List<vector> 
100
(
(7.63949e-06 0 0)
(2.1256e-05 0 0)
(5.71728e-05 0 0)
(0.000148627 0 0)
(0.000373339 0 0)
(0.000905935 0 0)
(0.00212305 0 0)
(0.0048036 0 0)
(0.0104901 0 0)
(0.0221035 0 0)
(0.0449227 0 0)
(0.0880352 0 0)
(0.166305 0 0)
(0.302771 0 0)
(0.531164 0 0)
(0.89797 0 0)
(1.46325 0 0)
(2.29947 0 0)
(3.48775 0 0)
(5.11194 0 0)
(7.25112 0 0)
(9.97221 0 0)
(13.3242 0 0)
(17.3347 0 0)
(22.0099 0 0)
(27.3365 0 0)
(33.2858 0 0)
(39.818 0 0)
(46.8865 0 0)
(54.4417 0 0)
(62.4339 0 0)
(70.815 0 0)
(79.5399 0 0)
(88.567 0 0)
(97.8581 0 0)
(107.378 0 0)
(117.096 0 0)
(126.981 0 0)
(137.006 0 0)
(147.144 0 0)
(157.367 0 0)
(167.647 0 0)
(177.952 0 0)
(188.247 0 0)
(198.49 0 0)
(208.63 0 0)
(218.602 0 0)
(228.325 0 0)
(237.695 0 0)
(246.581 0 0)
(254.828 0 0)
(262.258 0 0)
(268.691 0 0)
(273.986 0 0)
(278.079 0 0)
(281.022 0 0)
(282.98 0 0)
(284.182 0 0)
(284.868 0 0)
(285.237 0 0)
(285.427 0 0)
(285.526 0 0)
(285.579 0 0)
(285.61 0 0)
(285.632 0 0)
(285.649 0 0)
(285.664 0 0)
(285.678 0 0)
(285.694 0 0)
(285.71 0 0)
(285.728 0 0)
(285.747 0 0)
(285.769 0 0)
(285.793 0 0)
(285.819 0 0)
(285.848 0 0)
(285.879 0 0)
(285.913 0 0)
(285.95 0 0)
(285.99 0 0)
(286.033 0 0)
(286.086 0 0)
(286.159 0 0)
(286.2 0 0)
(285.752 0 0)
(282.951 0 0)
(272.992 0 0)
(248.141 0 0)
(202.055 0 0)
(137.73 0 0)
(72.9654 0 0)
(29.3383 0 0)
(9.66724 0 0)
(2.90008 0 0)
(0.840847 0 0)
(0.2408 0 0)
(0.0685215 0 0)
(0.0193899 0 0)
(0.00545154 0 0)
(0.0015206 0 0)
)
;

boundaryField
{
    sides
    {
        type            zeroGradient;
    }
    empty
    {
        type            empty;
    }
}


// ************************************************************************* //
