/*--------------------------------*- C++ -*----------------------------------*\
| =========                 |                                                 |
| \\      /  F ield         | OpenFOAM: The Open Source CFD Toolbox           |
|  \\    /   O peration     | Version:  2212                                  |
|   \\  /    A nd           | Website:  www.openfoam.com                      |
|    \\/     M anipulation  |                                                 |
\*---------------------------------------------------------------------------*/
FoamFile
{
    version     2.0;
    format      ascii;
    arch        "LSB;label=32;scalar=64";
    class       volVectorField;
    location    "0.007";
    object      U;
}
// * * * * * * * * * * * * * * * * * * * * * * * * * * * * * * * * * * * * * //

dimensions      [0 1 -1 0 0 0 0];

internalField   nonuniform List<vector> 
100
(
(7.35076e-06 0 0)
(2.04866e-05 0 0)
(5.51953e-05 0 0)
(0.000143725 0 0)
(0.000361628 0 0)
(0.00087897 0 0)
(0.00206324 0 0)
(0.00467586 0 0)
(0.0102275 0 0)
(0.0215843 0 0)
(0.0439356 0 0)
(0.0862319 0 0)
(0.163141 0 0)
(0.297442 0 0)
(0.522549 0 0)
(0.884606 0 0)
(1.44336 0 0)
(2.27101 0 0)
(3.44863 0 0)
(5.06013 0 0)
(7.18489 0 0)
(9.89026 0 0)
(13.2257 0 0)
(17.2195 0 0)
(21.8782 0 0)
(27.189 0 0)
(33.1234 0 0)
(39.6416 0 0)
(46.6972 0 0)
(54.2405 0 0)
(62.2218 0 0)
(70.593 0 0)
(79.3089 0 0)
(88.3276 0 0)
(97.611 0 0)
(107.124 0 0)
(116.835 0 0)
(126.715 0 0)
(136.735 0 0)
(146.867 0 0)
(157.086 0 0)
(167.361 0 0)
(177.663 0 0)
(187.955 0 0)
(198.195 0 0)
(208.331 0 0)
(218.3 0 0)
(228.018 0 0)
(237.383 0 0)
(246.264 0 0)
(254.504 0 0)
(261.926 0 0)
(268.351 0 0)
(273.637 0 0)
(277.725 0 0)
(280.666 0 0)
(282.626 0 0)
(283.837 0 0)
(284.535 0 0)
(284.916 0 0)
(285.119 0 0)
(285.227 0 0)
(285.287 0 0)
(285.323 0 0)
(285.346 0 0)
(285.364 0 0)
(285.379 0 0)
(285.393 0 0)
(285.407 0 0)
(285.423 0 0)
(285.44 0 0)
(285.459 0 0)
(285.481 0 0)
(285.505 0 0)
(285.531 0 0)
(285.56 0 0)
(285.592 0 0)
(285.627 0 0)
(285.665 0 0)
(285.706 0 0)
(285.75 0 0)
(285.806 0 0)
(285.883 0 0)
(285.922 0 0)
(285.435 0 0)
(282.467 0 0)
(272.069 0 0)
(246.453 0 0)
(199.496 0 0)
(134.754 0 0)
(70.5548 0 0)
(28.0684 0 0)
(9.19116 0 0)
(2.74911 0 0)
(0.795653 0 0)
(0.22747 0 0)
(0.0645978 0 0)
(0.0182342 0 0)
(0.00511125 0 0)
(0.00142067 0 0)
)
;

boundaryField
{
    sides
    {
        type            zeroGradient;
    }
    empty
    {
        type            empty;
    }
}


// ************************************************************************* //
