/*--------------------------------*- C++ -*----------------------------------*\
| =========                 |                                                 |
| \\      /  F ield         | OpenFOAM: The Open Source CFD Toolbox           |
|  \\    /   O peration     | Version:  2312                                  |
|   \\  /    A nd           | Website:  www.openfoam.com                      |
|    \\/     M anipulation  |                                                 |
\*---------------------------------------------------------------------------*/
FoamFile
{
    version     2.0;
    format      ascii;
    arch        "LSB;label=32;scalar=64";
    class       volVectorField;
    location    "0.007";
    object      U;
}
// * * * * * * * * * * * * * * * * * * * * * * * * * * * * * * * * * * * * * //

dimensions      [0 1 -1 0 0 0 0];

internalField   nonuniform List<vector> 
100
(
(70.6434 0 0)
(77.5212 0 0)
(84.8384 0 0)
(92.4133 0 0)
(100.221 0 0)
(108.243 0 0)
(116.459 0 0)
(124.854 0 0)
(133.412 0 0)
(142.117 0 0)
(150.956 0 0)
(159.917 0 0)
(168.989 0 0)
(178.16 0 0)
(187.422 0 0)
(196.766 0 0)
(206.184 0 0)
(215.669 0 0)
(225.214 0 0)
(234.813 0 0)
(244.46 0 0)
(254.149 0 0)
(263.876 0 0)
(273.635 0 0)
(283.421 0 0)
(293.229 0 0)
(303.053 0 0)
(312.889 0 0)
(322.73 0 0)
(332.57 0 0)
(342.402 0 0)
(352.219 0 0)
(362.012 0 0)
(371.773 0 0)
(381.488 0 0)
(391.147 0 0)
(400.734 0 0)
(410.232 0 0)
(419.619 0 0)
(428.873 0 0)
(437.964 0 0)
(446.859 0 0)
(455.517 0 0)
(463.894 0 0)
(471.936 0 0)
(479.584 0 0)
(486.773 0 0)
(493.436 0 0)
(499.506 0 0)
(504.923 0 0)
(509.641 0 0)
(513.638 0 0)
(516.918 0 0)
(519.516 0 0)
(521.498 0 0)
(522.95 0 0)
(523.971 0 0)
(524.657 0 0)
(525.1 0 0)
(525.371 0 0)
(525.529 0 0)
(525.615 0 0)
(525.657 0 0)
(525.673 0 0)
(525.674 0 0)
(525.668 0 0)
(525.659 0 0)
(525.649 0 0)
(525.638 0 0)
(525.629 0 0)
(525.621 0 0)
(525.614 0 0)
(525.608 0 0)
(525.604 0 0)
(525.602 0 0)
(525.599 0 0)
(525.596 0 0)
(525.588 0 0)
(525.565 0 0)
(525.508 0 0)
(525.379 0 0)
(525.119 0 0)
(524.644 0 0)
(523.858 0 0)
(522.683 0 0)
(521.089 0 0)
(519.129 0 0)
(516.942 0 0)
(514.721 0 0)
(512.661 0 0)
(510.912 0 0)
(509.544 0 0)
(508.553 0 0)
(507.881 0 0)
(507.448 0 0)
(507.175 0 0)
(506.995 0 0)
(506.867 0 0)
(506.761 0 0)
(506.659 0 0)
)
;

boundaryField
{
    sides
    {
        type            zeroGradient;
    }
    empty
    {
        type            empty;
    }
}


// ************************************************************************* //
