/*--------------------------------*- C++ -*----------------------------------*\
| =========                 |                                                 |
| \\      /  F ield         | OpenFOAM: The Open Source CFD Toolbox           |
|  \\    /   O peration     | Version:  2212                                  |
|   \\  /    A nd           | Website:  www.openfoam.com                      |
|    \\/     M anipulation  |                                                 |
\*---------------------------------------------------------------------------*/
FoamFile
{
    version     2.0;
    format      ascii;
    arch        "LSB;label=32;scalar=64";
    class       volScalarField;
    location    "0.01";
    object      rho;
}
// * * * * * * * * * * * * * * * * * * * * * * * * * * * * * * * * * * * * * //

dimensions      [1 -3 0 0 0 0 0];

internalField   nonuniform List<scalar> 10(0.99267 0.99267 0.99267 0.99267 0.99267 0.123972 0.123972 0.123972 0.123972 0.123972);

boundaryField
{
    sides
    {
        type            calculated;
        value           nonuniform List<scalar> 2(0.123972 0.99267);
    }
    empty
    {
        type            empty;
    }
}


// ************************************************************************* //
