/*--------------------------------*- C++ -*----------------------------------*\
| =========                 |                                                 |
| \\      /  F ield         | OpenFOAM: The Open Source CFD Toolbox           |
|  \\    /   O peration     | Version:  2312                                  |
|   \\  /    A nd           | Website:  www.openfoam.com                      |
|    \\/     M anipulation  |                                                 |
\*---------------------------------------------------------------------------*/
FoamFile
{
    version     2.0;
    format      ascii;
    arch        "LSB;label=32;scalar=64";
    class       volScalarField;
    location    "0.009";
    object      p;
}
// * * * * * * * * * * * * * * * * * * * * * * * * * * * * * * * * * * * * * //

dimensions      [1 -1 -2 0 0 0 0];

internalField   nonuniform List<scalar> 
100
(
99992.1
99985.2
99973
99952.1
99917.6
99862.2
99776.4
99647.6
99460.7
99198.1
98841
98370.4
97768.6
97020.9
96116.8
95050.6
93822.1
92435.8
90900.7
89229.1
87435.7
85536.5
83548.2
81486.9
79368.6
77207.7
75017.8
72811
70598
68388.2
66190
64010.4
61855.5
59730.6
57640
55587.4
53576
51608.3
49686.6
47812.7
45988.1
44214.2
42492.3
40823.6
39209.6
37651.9
36153.1
34716.8
33348.9
32059.7
30868.2
29814
28986.3
28573.5
28506.7
28491.4
28481.9
28475.8
28472.1
28470
28469
28468.8
28469.3
28470.1
28471.4
28472.8
28474.4
28476.2
28478
28479.8
28481.7
28483.6
28485.5
28487.3
28489.2
28491
28492.8
28494.7
28496.5
28498.4
28500.3
28502.4
28504.4
28506.6
28508.9
28511.2
28513.5
28515.7
28517.4
28517.9
28515.8
28508
28488.3
28444
28349.6
28154.5
27764.5
27019.5
25693.1
23833.1
)
;

boundaryField
{
    sides
    {
        type            zeroGradient;
    }
    empty
    {
        type            empty;
    }
}


// ************************************************************************* //
