/*--------------------------------*- C++ -*----------------------------------*\
| =========                 |                                                 |
| \\      /  F ield         | OpenFOAM: The Open Source CFD Toolbox           |
|  \\    /   O peration     | Version:  2212                                  |
|   \\  /    A nd           | Website:  www.openfoam.com                      |
|    \\/     M anipulation  |                                                 |
\*---------------------------------------------------------------------------*/
FoamFile
{
    version     2.0;
    format      ascii;
    arch        "LSB;label=32;scalar=64";
    class       volScalarField;
    location    "0.009";
    object      p;
}
// * * * * * * * * * * * * * * * * * * * * * * * * * * * * * * * * * * * * * //

dimensions      [1 -1 -2 0 0 0 0];

internalField   nonuniform List<scalar> 
100
(
100000
100000
100000
100000
100000
100000
100000
100000
100000
100000
100000
100000
100000
100000
100000
100000
100000
99999.7
99938.4
98735.7
94487
89250.3
84967.2
81499.3
78446.6
75600
72878.2
70253.2
67714.7
65257.6
62877.8
60572
58337.1
56170.4
54069.4
52031.8
50055.6
48139.1
46280.8
44479.4
42734.1
41043.9
39408.3
37826.9
36299.6
34827.2
33411.4
32056.6
30770.9
29579.7
28552.6
27918
28520.9
28599.8
28414.8
28320.4
28312.9
28373.3
28384.2
28381.5
28393.5
28402.7
28386.3
28367.2
28406
28419.8
28421.3
28436.6
28435.3
28420.5
28432.8
28456.7
28453.1
28462.5
28500.2
28694.8
28753.8
27765.4
28326.1
28789.1
29015.2
28991.3
28587.4
28170.6
28093.3
28044.2
28009.9
28134.2
28738.7
29065.7
29060.8
28907.4
28250.5
27912.9
27888.9
27904.4
28038.7
28665.8
28354.7
27137.9
)
;

boundaryField
{
    sides
    {
        type            zeroGradient;
    }
    empty
    {
        type            empty;
    }
}


// ************************************************************************* //
