/*--------------------------------*- C++ -*----------------------------------*\
| =========                 |                                                 |
| \\      /  F ield         | OpenFOAM: The Open Source CFD Toolbox           |
|  \\    /   O peration     | Version:  2312                                  |
|   \\  /    A nd           | Website:  www.openfoam.com                      |
|    \\/     M anipulation  |                                                 |
\*---------------------------------------------------------------------------*/
FoamFile
{
    version     2.0;
    format      ascii;
    arch        "LSB;label=32;scalar=64";
    class       volScalarField;
    location    "0.009";
    object      p;
}
// * * * * * * * * * * * * * * * * * * * * * * * * * * * * * * * * * * * * * //

dimensions      [1 -1 -2 0 0 0 0];

internalField   nonuniform List<scalar> 
100
(
70624.6
69402.5
68202
67009.7
65826.3
64652.7
63489.4
62337.1
61196.4
60067.8
58951.5
57847.9
56757.4
55680.2
54616.4
53566.2
52529.9
51507.5
50499.2
49505
48525
47559.3
46607.8
45670.7
44748
43839.6
42945.6
42066.1
41201
40350.4
39514.4
38693.2
37886.8
37095.6
36319.7
35559.7
34815.9
34089.1
33380.3
32690.6
32021.9
31376.4
30757.5
30169.7
29619.2
29114.7
28667.5
28291.2
27999.2
27799
27683.8
27630.5
27609.4
27600.2
27595.1
27592.4
27591.2
27591.2
27592.1
27593.5
27595.2
27597.1
27599.1
27601.1
27603
27604.9
27606.7
27608.5
27610.2
27611.8
27613.3
27614.8
27616.3
27617.7
27619
27620.4
27621.9
27624.2
27628.1
27636.1
27652.1
27681.6
27731
27803.4
27896.2
27999
28097.7
28180.2
28241.6
28284.5
28316.6
28346.8
28382.5
28428.6
28488.1
28561.8
28648.9
28747.2
28852.9
29073.5
)
;

boundaryField
{
    sides
    {
        type            zeroGradient;
    }
    empty
    {
        type            empty;
    }
}


// ************************************************************************* //
