/*--------------------------------*- C++ -*----------------------------------*\
| =========                 |                                                 |
| \\      /  F ield         | OpenFOAM: The Open Source CFD Toolbox           |
|  \\    /   O peration     | Version:  2212                                  |
|   \\  /    A nd           | Website:  www.openfoam.com                      |
|    \\/     M anipulation  |                                                 |
\*---------------------------------------------------------------------------*/
FoamFile
{
    version     2.0;
    format      ascii;
    arch        "LSB;label=32;scalar=64";
    class       volScalarField;
    location    "0.009";
    object      p;
}
// * * * * * * * * * * * * * * * * * * * * * * * * * * * * * * * * * * * * * //

dimensions      [1 -1 -2 0 0 0 0];

internalField   nonuniform List<scalar> 
100
(
99991.9
99984.9
99972.4
99951
99915.8
99859.3
99771.9
99640.8
99450.9
99184.3
98822.3
98345.6
97736.8
96981.3
96068.7
94993.7
93756.1
92360.9
90817.2
89137.4
87336.5
85430.4
83435.9
81369.2
79246.2
77081.3
74888.1
72678.6
70463.4
68252
66052.5
63872.1
61716.7
59591.6
57501.1
55448.9
53438.1
51471.3
49550.6
47677.9
45854.6
44082.3
42362.1
40695.3
39083.5
37528.5
36032.8
34600.2
33237.2
31954.6
30772.8
29733.8
28930.4
28544
28483.9
28469.9
28460.5
28453.3
28447.8
28443.6
28440.9
28439.8
28439.9
28440.8
28442.2
28444
28445.9
28447.8
28449.9
28451.9
28454
28456
28458
28460
28462
28463.9
28465.9
28467.8
28469.8
28471.8
28473.8
28475.9
28478.1
28480.4
28482.8
28485.3
28487.8
28490.1
28492
28492.8
28491.1
28483.8
28464.9
28421.9
28329.8
28139.1
27757.1
27026.5
25723.9
23893.2
)
;

boundaryField
{
    sides
    {
        type            zeroGradient;
    }
    empty
    {
        type            empty;
    }
}


// ************************************************************************* //
