/*--------------------------------*- C++ -*----------------------------------*\
| =========                 |                                                 |
| \\      /  F ield         | OpenFOAM: The Open Source CFD Toolbox           |
|  \\    /   O peration     | Version:  2312                                  |
|   \\  /    A nd           | Website:  www.openfoam.com                      |
|    \\/     M anipulation  |                                                 |
\*---------------------------------------------------------------------------*/
FoamFile
{
    version     2.0;
    format      ascii;
    arch        "LSB;label=32;scalar=64";
    class       volScalarField;
    location    "0.009";
    object      rho;
}
// * * * * * * * * * * * * * * * * * * * * * * * * * * * * * * * * * * * * * //

dimensions      [1 -3 0 0 0 0 0];

internalField   nonuniform List<scalar> 
100
(
1.15856
1.1585
1.1584
1.15823
1.15794
1.15748
1.15677
1.1557
1.15415
1.15197
1.14901
1.14509
1.14007
1.13382
1.12624
1.11728
1.1069
1.09515
1.08207
1.06774
1.05229
1.03582
1.01845
1.00033
0.981557
0.962259
0.942542
0.922504
0.902233
0.88181
0.861305
0.840781
0.820293
0.799891
0.779616
0.759506
0.739595
0.719911
0.700482
0.68133
0.662479
0.643948
0.625758
0.607932
0.590493
0.57347
0.556902
0.54084
0.525365
0.510611
0.496818
0.48447
0.474648
0.469617
0.468613
0.468183
0.467782
0.467373
0.466928
0.466418
0.465805
0.465032
0.464017
0.462635
0.460703
0.457973
0.454138
0.448852
0.441785
0.432684
0.421443
0.408154
0.393115
0.376807
0.359823
0.342795
0.326313
0.310873
0.296843
0.284455
0.273812
0.264909
0.257656
0.251904
0.247466
0.244138
0.241716
0.240009
0.238843
0.238071
0.237567
0.237223
0.236936
0.236582
0.235978
0.234802
0.232476
0.228015
0.219979
0.208564
)
;

boundaryField
{
    sides
    {
        type            calculated;
        value           nonuniform List<scalar> 2(0.208564 1.15856);
    }
    empty
    {
        type            empty;
    }
}


// ************************************************************************* //
