/*--------------------------------*- C++ -*----------------------------------*\
| =========                 |                                                 |
| \\      /  F ield         | OpenFOAM: The Open Source CFD Toolbox           |
|  \\    /   O peration     | Version:  2212                                  |
|   \\  /    A nd           | Website:  www.openfoam.com                      |
|    \\/     M anipulation  |                                                 |
\*---------------------------------------------------------------------------*/
FoamFile
{
    version     2.0;
    format      ascii;
    arch        "LSB;label=32;scalar=64";
    class       volScalarField;
    location    "0.009";
    object      rho;
}
// * * * * * * * * * * * * * * * * * * * * * * * * * * * * * * * * * * * * * //

dimensions      [1 -3 0 0 0 0 0];

internalField   nonuniform List<scalar> 
100
(
1.16096
1.1609
1.1608
1.16062
1.16033
1.15987
1.15914
1.15806
1.15649
1.15429
1.15129
1.14733
1.14227
1.13597
1.12834
1.11933
1.1089
1.0971
1.08398
1.06962
1.05413
1.03764
1.02025
1.00211
0.983333
0.964032
0.944314
0.924277
0.904011
0.883594
0.863097
0.842581
0.822101
0.801707
0.78144
0.761337
0.741432
0.721754
0.702328
0.68318
0.66433
0.645801
0.627612
0.609786
0.592349
0.575329
0.558768
0.542719
0.52727
0.51256
0.498848
0.486648
0.477087
0.472353
0.471421
0.471
0.470592
0.470161
0.469682
0.469132
0.468476
0.46766
0.466595
0.465144
0.463115
0.460247
0.456222
0.45069
0.443319
0.433866
0.422244
0.408567
0.393162
0.376528
0.359277
0.342047
0.325427
0.309908
0.295847
0.283463
0.272848
0.263988
0.256785
0.251083
0.246691
0.243405
0.241018
0.239339
0.238195
0.237441
0.236951
0.236619
0.236344
0.236004
0.235421
0.234281
0.232019
0.227675
0.219836
0.208676
)
;

boundaryField
{
    sides
    {
        type            calculated;
        value           nonuniform List<scalar> 2(0.208676 1.16096);
    }
    empty
    {
        type            empty;
    }
}


// ************************************************************************* //
