/*--------------------------------*- C++ -*----------------------------------*\
| =========                 |                                                 |
| \\      /  F ield         | OpenFOAM: The Open Source CFD Toolbox           |
|  \\    /   O peration     | Version:  2312                                  |
|   \\  /    A nd           | Website:  www.openfoam.com                      |
|    \\/     M anipulation  |                                                 |
\*---------------------------------------------------------------------------*/
FoamFile
{
    version     2.0;
    format      ascii;
    arch        "LSB;label=32;scalar=64";
    class       volScalarField;
    location    "0.009";
    object      rho;
}
// * * * * * * * * * * * * * * * * * * * * * * * * * * * * * * * * * * * * * //

dimensions      [1 -3 0 0 0 0 0];

internalField   nonuniform List<scalar> 
100
(
0.227511
0.22514
0.222793
0.220443
0.218093
0.215744
0.213397
0.211054
0.208717
0.206386
0.204063
0.201749
0.199444
0.19715
0.194867
0.192595
0.190336
0.18809
0.185857
0.183638
0.181434
0.179243
0.177068
0.174909
0.172765
0.170637
0.168526
0.166432
0.164355
0.162296
0.160256
0.158235
0.156233
0.154253
0.152295
0.150361
0.148452
0.146571
0.144721
0.142906
0.141131
0.139405
0.137735
0.136137
0.134629
0.133236
0.131992
0.130937
0.130113
0.129541
0.129206
0.129043
0.12897
0.12893
0.1289
0.128876
0.128856
0.128838
0.128821
0.128805
0.128788
0.128771
0.128752
0.128732
0.128709
0.128684
0.128657
0.128625
0.128591
0.128551
0.128506
0.128454
0.128393
0.12832
0.128232
0.128123
0.127986
0.127813
0.127593
0.127314
0.126964
0.12653
0.125994
0.125326
0.124474
0.123365
0.121924
0.120087
0.117827
0.115153
0.1121
0.108725
0.105093
0.101276
0.0973478
0.0933815
0.089451
0.0856417
0.0821108
0.0795367
)
;

boundaryField
{
    sides
    {
        type            calculated;
        value           nonuniform List<scalar> 2(0.0795367 0.227511);
    }
    empty
    {
        type            empty;
    }
}


// ************************************************************************* //
