/*--------------------------------*- C++ -*----------------------------------*\
| =========                 |                                                 |
| \\      /  F ield         | OpenFOAM: The Open Source CFD Toolbox           |
|  \\    /   O peration     | Version:  2212                                  |
|   \\  /    A nd           | Website:  www.openfoam.com                      |
|    \\/     M anipulation  |                                                 |
\*---------------------------------------------------------------------------*/
FoamFile
{
    version     2.0;
    format      ascii;
    arch        "LSB;label=32;scalar=64";
    class       volScalarField;
    location    "0.009";
    object      rho;
}
// * * * * * * * * * * * * * * * * * * * * * * * * * * * * * * * * * * * * * //

dimensions      [1 -3 0 0 0 0 0];

internalField   nonuniform List<scalar> 
100
(
1.16103
1.16103
1.16103
1.16103
1.16103
1.16103
1.16103
1.16103
1.16103
1.16103
1.16103
1.16103
1.16103
1.16103
1.16103
1.16103
1.16103
1.16103
1.16052
1.15055
1.11516
1.07097
1.03427
1.00415
0.977322
0.952027
0.927578
0.903746
0.880451
0.857658
0.835344
0.813487
0.792071
0.771078
0.750495
0.73031
0.710513
0.691095
0.672051
0.653377
0.635073
0.617139
0.599579
0.582398
0.565607
0.549223
0.533279
0.517836
0.503006
0.489106
0.476985
0.469445
0.476623
0.477587
0.475427
0.474209
0.474192
0.474888
0.47508
0.47508
0.47523
0.475387
0.475207
0.475087
0.475699
0.47623
0.476863
0.477355
0.477331
0.476927
0.476142
0.473575
0.465954
0.447932
0.411504
0.355823
0.294304
0.246035
0.234158
0.234083
0.235398
0.235552
0.234034
0.232464
0.232615
0.23281
0.232942
0.233968
0.237821
0.239997
0.240263
0.239832
0.236182
0.234163
0.233921
0.233681
0.23387
0.237102
0.234867
0.224147
)
;

boundaryField
{
    sides
    {
        type            calculated;
        value           nonuniform List<scalar> 2(0.224147 1.16103);
    }
    empty
    {
        type            empty;
    }
}


// ************************************************************************* //
