/*--------------------------------*- C++ -*----------------------------------*\
| =========                 |                                                 |
| \\      /  F ield         | OpenFOAM: The Open Source CFD Toolbox           |
|  \\    /   O peration     | Version:  2312                                  |
|   \\  /    A nd           | Website:  www.openfoam.com                      |
|    \\/     M anipulation  |                                                 |
\*---------------------------------------------------------------------------*/
FoamFile
{
    version     2.0;
    format      ascii;
    arch        "LSB;label=32;scalar=64";
    class       volScalarField;
    location    "0.009";
    object      T;
}
// * * * * * * * * * * * * * * * * * * * * * * * * * * * * * * * * * * * * * //

dimensions      [0 0 0 1 0 0 0];

internalField   nonuniform List<scalar> 
100
(
299.993
299.987
299.977
299.959
299.929
299.882
299.808
299.698
299.537
299.312
299.004
298.599
298.078
297.429
296.64
295.704
294.617
293.38
291.996
290.471
288.814
287.033
285.14
283.145
281.058
278.889
276.648
274.342
271.98
269.569
267.115
264.625
262.103
259.555
256.984
254.395
251.791
249.175
246.551
243.921
241.289
238.657
236.03
233.41
230.803
228.213
225.648
223.118
220.64
218.239
215.962
213.903
212.268
211.487
211.444
211.525
211.635
211.775
211.949
212.165
212.438
212.789
213.258
213.902
214.808
216.1
217.937
220.517
224.058
228.786
234.904
242.568
251.864
262.782
275.203
288.893
303.504
318.599
333.679
348.234
361.794
373.979
384.534
393.345
400.431
405.923
410.023
412.972
415.012
416.365
417.218
417.708
417.926
417.9
417.579
416.782
415.122
411.886
405.974
397.196
)
;

boundaryField
{
    sides
    {
        type            zeroGradient;
    }
    empty
    {
        type            empty;
    }
}


// ************************************************************************* //
