/*--------------------------------*- C++ -*----------------------------------*\
| =========                 |                                                 |
| \\      /  F ield         | OpenFOAM: The Open Source CFD Toolbox           |
|  \\    /   O peration     | Version:  2212                                  |
|   \\  /    A nd           | Website:  www.openfoam.com                      |
|    \\/     M anipulation  |                                                 |
\*---------------------------------------------------------------------------*/
FoamFile
{
    version     2.0;
    format      ascii;
    arch        "LSB;label=32;scalar=64";
    class       volScalarField;
    location    "0.009";
    object      T;
}
// * * * * * * * * * * * * * * * * * * * * * * * * * * * * * * * * * * * * * //

dimensions      [0 0 0 1 0 0 0];

internalField   nonuniform List<scalar> 
100
(
300
300
300
300
300
300
300
300
300
300
300
300
300
300
300
300
300
300
299.947
298.904
295.121
290.266
286.142
282.695
279.576
276.59
273.66
270.759
267.881
265.021
262.178
259.349
256.534
253.731
250.939
248.156
245.383
242.619
239.863
237.115
234.377
231.648
228.931
226.227
223.538
220.869
218.225
215.62
213.074
210.647
208.5
207.14
208.426
208.581
208.173
208.014
207.967
208.105
208.101
208.081
208.104
208.102
208.061
207.973
207.99
207.859
207.594
207.491
207.492
207.56
207.992
209.295
212.692
221.322
241.233
280.888
340.3
393.071
421.349
428.374
429.326
428.691
425.46
422.089
420.657
419.571
418.819
418.834
420.901
421.831
421.295
419.823
416.623
415.193
415.265
415.923
417.586
421.107
420.501
421.704
)
;

boundaryField
{
    sides
    {
        type            zeroGradient;
    }
    empty
    {
        type            empty;
    }
}


// ************************************************************************* //
