/*--------------------------------*- C++ -*----------------------------------*\
| =========                 |                                                 |
| \\      /  F ield         | OpenFOAM: The Open Source CFD Toolbox           |
|  \\    /   O peration     | Version:  2312                                  |
|   \\  /    A nd           | Website:  www.openfoam.com                      |
|    \\/     M anipulation  |                                                 |
\*---------------------------------------------------------------------------*/
FoamFile
{
    version     2.0;
    format      ascii;
    arch        "LSB;label=32;scalar=64";
    class       volScalarField;
    location    "0.009";
    object      T;
}
// * * * * * * * * * * * * * * * * * * * * * * * * * * * * * * * * * * * * * //

dimensions      [0 0 0 1 0 0 0];

internalField   nonuniform List<scalar> 
100
(
261.346
259.529
257.727
255.92
254.11
252.297
250.482
248.666
246.849
245.033
243.217
241.402
239.588
237.775
235.965
234.158
232.353
230.551
228.754
226.96
225.17
223.386
221.606
219.831
218.063
216.3
214.543
212.794
211.051
209.316
207.589
205.872
204.163
202.466
200.78
199.107
197.449
195.808
194.188
192.591
191.023
189.492
188.005
186.577
185.225
183.974
182.855
181.908
181.171
180.669
180.388
180.267
180.232
180.228
180.237
180.252
180.273
180.298
180.327
180.359
180.393
180.43
180.469
180.511
180.555
180.603
180.654
180.709
180.769
180.835
180.909
180.992
181.088
181.199
181.333
181.496
181.7
181.961
182.301
182.753
183.363
184.188
185.301
186.775
188.682
191.079
194.02
197.566
201.793
206.794
212.667
219.503
227.374
236.327
246.378
257.506
269.641
282.601
295.837
307.747
)
;

boundaryField
{
    sides
    {
        type            zeroGradient;
    }
    empty
    {
        type            empty;
    }
}


// ************************************************************************* //
