/*--------------------------------*- C++ -*----------------------------------*\
| =========                 |                                                 |
| \\      /  F ield         | OpenFOAM: The Open Source CFD Toolbox           |
|  \\    /   O peration     | Version:  2212                                  |
|   \\  /    A nd           | Website:  www.openfoam.com                      |
|    \\/     M anipulation  |                                                 |
\*---------------------------------------------------------------------------*/
FoamFile
{
    version     2.0;
    format      ascii;
    arch        "LSB;label=32;scalar=64";
    class       volScalarField;
    location    "0.009";
    object      T;
}
// * * * * * * * * * * * * * * * * * * * * * * * * * * * * * * * * * * * * * //

dimensions      [0 0 0 1 0 0 0];

internalField   nonuniform List<scalar> 
100
(
299.993
299.987
299.976
299.958
299.927
299.878
299.802
299.688
299.523
299.291
298.975
298.559
298.026
297.361
296.555
295.598
294.489
293.228
291.818
290.265
288.579
286.769
284.845
282.818
280.699
278.498
276.224
273.885
271.49
269.046
266.559
264.036
261.482
258.901
256.298
253.677
251.041
248.393
245.738
243.078
240.416
237.755
235.099
232.451
229.816
227.2
224.611
222.059
219.561
217.146
214.864
212.814
211.213
210.481
210.452
210.537
210.65
210.79
210.964
211.18
211.456
211.816
212.301
212.97
213.914
215.26
217.173
219.855
223.526
228.412
234.716
242.591
252.114
263.27
275.93
289.85
304.673
319.952
335.182
349.851
363.487
375.714
386.283
395.087
402.154
407.62
411.693
414.615
416.633
417.969
418.807
419.287
419.498
419.468
419.144
418.348
416.691
413.464
407.569
398.811
)
;

boundaryField
{
    sides
    {
        type            zeroGradient;
    }
    empty
    {
        type            empty;
    }
}


// ************************************************************************* //
