/*--------------------------------*- C++ -*----------------------------------*\
| =========                 |                                                 |
| \\      /  F ield         | OpenFOAM: The Open Source CFD Toolbox           |
|  \\    /   O peration     | Version:  2212                                  |
|   \\  /    A nd           | Website:  www.openfoam.com                      |
|    \\/     M anipulation  |                                                 |
\*---------------------------------------------------------------------------*/
FoamFile
{
    version     2.0;
    format      ascii;
    arch        "LSB;label=32;scalar=64";
    class       volScalarField;
    location    "0.009";
    object      thermo:psi;
}
// * * * * * * * * * * * * * * * * * * * * * * * * * * * * * * * * * * * * * //

dimensions      [0 -2 2 0 0 0 0];

internalField   nonuniform List<scalar> 
100
(
1.16103e-05
1.16103e-05
1.16103e-05
1.16103e-05
1.16103e-05
1.16103e-05
1.16103e-05
1.16103e-05
1.16103e-05
1.16103e-05
1.16103e-05
1.16103e-05
1.16103e-05
1.16103e-05
1.16103e-05
1.16103e-05
1.16103e-05
1.16103e-05
1.16123e-05
1.16529e-05
1.18022e-05
1.19996e-05
1.21726e-05
1.2321e-05
1.24584e-05
1.25929e-05
1.27278e-05
1.28641e-05
1.30024e-05
1.31427e-05
1.32852e-05
1.34301e-05
1.35775e-05
1.37275e-05
1.38802e-05
1.40359e-05
1.41945e-05
1.43562e-05
1.45212e-05
1.46894e-05
1.4861e-05
1.50361e-05
1.52145e-05
1.53964e-05
1.55816e-05
1.57699e-05
1.5961e-05
1.61538e-05
1.63468e-05
1.65352e-05
1.67055e-05
1.68151e-05
1.67114e-05
1.66989e-05
1.67317e-05
1.67445e-05
1.67482e-05
1.67371e-05
1.67375e-05
1.67391e-05
1.67373e-05
1.67374e-05
1.67407e-05
1.67478e-05
1.67464e-05
1.6757e-05
1.67784e-05
1.67866e-05
1.67866e-05
1.67811e-05
1.67462e-05
1.6642e-05
1.63762e-05
1.57376e-05
1.44386e-05
1.24003e-05
1.02353e-05
8.8612e-06
8.26651e-06
8.13095e-06
8.11292e-06
8.12493e-06
8.18663e-06
8.25201e-06
8.2801e-06
8.30154e-06
8.31644e-06
8.31614e-06
8.2753e-06
8.25706e-06
8.26757e-06
8.29656e-06
8.36028e-06
8.38906e-06
8.38762e-06
8.37434e-06
8.341e-06
8.27126e-06
8.28318e-06
8.25955e-06
)
;

boundaryField
{
    sides
    {
        type            calculated;
        value           nonuniform List<scalar> 2(8.25955e-06 1.16103e-05);
    }
    empty
    {
        type            empty;
    }
}


// ************************************************************************* //
