/*--------------------------------*- C++ -*----------------------------------*\
| =========                 |                                                 |
| \\      /  F ield         | OpenFOAM: The Open Source CFD Toolbox           |
|  \\    /   O peration     | Version:  2212                                  |
|   \\  /    A nd           | Website:  www.openfoam.com                      |
|    \\/     M anipulation  |                                                 |
\*---------------------------------------------------------------------------*/
FoamFile
{
    version     2.0;
    format      ascii;
    arch        "LSB;label=32;scalar=64";
    class       volScalarField;
    location    "0.009";
    object      thermo:psi;
}
// * * * * * * * * * * * * * * * * * * * * * * * * * * * * * * * * * * * * * //

dimensions      [0 -2 2 0 0 0 0];

internalField   nonuniform List<scalar> 
100
(
1.16106e-05
1.16108e-05
1.16112e-05
1.16119e-05
1.16131e-05
1.1615e-05
1.1618e-05
1.16224e-05
1.16288e-05
1.16378e-05
1.16501e-05
1.16663e-05
1.16872e-05
1.17133e-05
1.17452e-05
1.17832e-05
1.18275e-05
1.18784e-05
1.19358e-05
1.19997e-05
1.20698e-05
1.2146e-05
1.2228e-05
1.23156e-05
1.24086e-05
1.25067e-05
1.26097e-05
1.27173e-05
1.28295e-05
1.29461e-05
1.30668e-05
1.31917e-05
1.33206e-05
1.34534e-05
1.359e-05
1.37304e-05
1.38746e-05
1.40224e-05
1.4174e-05
1.43291e-05
1.44877e-05
1.46499e-05
1.48154e-05
1.49842e-05
1.5156e-05
1.53305e-05
1.55072e-05
1.56854e-05
1.58638e-05
1.60403e-05
1.62107e-05
1.63668e-05
1.64909e-05
1.65482e-05
1.65505e-05
1.65438e-05
1.6535e-05
1.65239e-05
1.65104e-05
1.64934e-05
1.64719e-05
1.64439e-05
1.64064e-05
1.63548e-05
1.62826e-05
1.61808e-05
1.60383e-05
1.58427e-05
1.55825e-05
1.52491e-05
1.48395e-05
1.43579e-05
1.38155e-05
1.32301e-05
1.26231e-05
1.20169e-05
1.14322e-05
1.08863e-05
1.03916e-05
9.95592e-06
9.58243e-06
9.27058e-06
9.01692e-06
8.81599e-06
8.66107e-06
8.54493e-06
8.4604e-06
8.40076e-06
8.36007e-06
8.33336e-06
8.31668e-06
8.30716e-06
8.30298e-06
8.30358e-06
8.31e-06
8.32581e-06
8.35892e-06
8.42415e-06
8.54599e-06
8.73367e-06
)
;

boundaryField
{
    sides
    {
        type            calculated;
        value           nonuniform List<scalar> 2(8.73367e-06 1.16106e-05);
    }
    empty
    {
        type            empty;
    }
}


// ************************************************************************* //
