/*--------------------------------*- C++ -*----------------------------------*\
| =========                 |                                                 |
| \\      /  F ield         | OpenFOAM: The Open Source CFD Toolbox           |
|  \\    /   O peration     | Version:  2212                                  |
|   \\  /    A nd           | Website:  www.openfoam.com                      |
|    \\/     M anipulation  |                                                 |
\*---------------------------------------------------------------------------*/
FoamFile
{
    version     2.0;
    format      ascii;
    arch        "LSB;label=32;scalar=64";
    class       volVectorField;
    location    "0.009";
    object      U;
}
// * * * * * * * * * * * * * * * * * * * * * * * * * * * * * * * * * * * * * //

dimensions      [0 1 -1 0 0 0 0];

internalField   nonuniform List<vector> 
100
(
(2.94392e-13 0 0)
(2.99036e-13 0 0)
(2.71168e-13 0 0)
(3.11567e-13 0 0)
(3.56459e-13 0 0)
(2.74208e-13 0 0)
(2.33843e-13 0 0)
(2.22828e-13 0 0)
(2.80666e-13 0 0)
(2.22515e-13 0 0)
(7.5534e-14 0 0)
(5.20341e-14 0 0)
(-1.43345e-13 0 0)
(-2.93329e-13 0 0)
(-2.77368e-13 0 0)
(1.41855e-12 0 0)
(1.04118e-07 0 0)
(0.000663581 0 0)
(0.152523 0 0)
(3.14239 0 0)
(13.9481 0 0)
(27.8664 0 0)
(39.8043 0 0)
(49.8541 0 0)
(59.0041 0 0)
(67.812 0 0)
(76.5016 0 0)
(85.1483 0 0)
(93.7763 0 0)
(102.395 0 0)
(111.011 0 0)
(119.629 0 0)
(128.254 0 0)
(136.89 0 0)
(145.539 0 0)
(154.207 0 0)
(162.895 0 0)
(171.605 0 0)
(180.338 0 0)
(189.095 0 0)
(197.873 0 0)
(206.671 0 0)
(215.484 0 0)
(224.309 0 0)
(233.135 0 0)
(241.951 0 0)
(250.734 0 0)
(259.445 0 0)
(268.002 0 0)
(276.226 0 0)
(283.533 0 0)
(288.173 0 0)
(283.773 0 0)
(283.202 0 0)
(284.524 0 0)
(285.263 0 0)
(285.285 0 0)
(284.867 0 0)
(284.758 0 0)
(284.773 0 0)
(284.707 0 0)
(284.642 0 0)
(284.776 0 0)
(284.882 0 0)
(284.596 0 0)
(284.486 0 0)
(284.448 0 0)
(284.405 0 0)
(284.428 0 0)
(284.545 0 0)
(284.454 0 0)
(284.271 0 0)
(284.276 0 0)
(284.28 0 0)
(284.341 0 0)
(285.832 0 0)
(287.03 0 0)
(277.432 0 0)
(282.508 0 0)
(287.343 0 0)
(289.568 0 0)
(289.152 0 0)
(284.893 0 0)
(280.535 0 0)
(279.746 0 0)
(279.367 0 0)
(279.289 0 0)
(280.817 0 0)
(287.185 0 0)
(290.586 0 0)
(290.602 0 0)
(289.095 0 0)
(282.435 0 0)
(278.973 0 0)
(278.728 0 0)
(278.868 0 0)
(280.26 0 0)
(287.168 0 0)
(295.137 0 0)
(256.582 0 0)
)
;

boundaryField
{
    sides
    {
        type            zeroGradient;
    }
    empty
    {
        type            empty;
    }
}


// ************************************************************************* //
