/*--------------------------------*- C++ -*----------------------------------*\
| =========                 |                                                 |
| \\      /  F ield         | OpenFOAM: The Open Source CFD Toolbox           |
|  \\    /   O peration     | Version:  2212                                  |
|   \\  /    A nd           | Website:  www.openfoam.com                      |
|    \\/     M anipulation  |                                                 |
\*---------------------------------------------------------------------------*/
FoamFile
{
    version     2.0;
    format      ascii;
    arch        "LSB;label=32;scalar=64";
    class       volVectorField;
    location    "0.009";
    object      U;
}
// * * * * * * * * * * * * * * * * * * * * * * * * * * * * * * * * * * * * * //

dimensions      [0 1 -1 0 0 0 0];

internalField   nonuniform List<vector> 
100
(
(0.0199428 0 0)
(0.0374609 0 0)
(0.0683527 0 0)
(0.121125 0 0)
(0.208423 0 0)
(0.348218 0 0)
(0.56488 0 0)
(0.889844 0 0)
(1.3616 0 0)
(2.02473 0 0)
(2.92796 0 0)
(4.12123 0 0)
(5.65239 0 0)
(7.56378 0 0)
(9.8894 0 0)
(12.653 0 0)
(15.8675 0 0)
(19.535 0 0)
(23.6482 0 0)
(28.192 0 0)
(33.1455 0 0)
(38.4841 0 0)
(44.1805 0 0)
(50.207 0 0)
(56.536 0 0)
(63.1408 0 0)
(69.9962 0 0)
(77.0789 0 0)
(84.3675 0 0)
(91.8424 0 0)
(99.4858 0 0)
(107.282 0 0)
(115.216 0 0)
(123.276 0 0)
(131.448 0 0)
(139.724 0 0)
(148.092 0 0)
(156.543 0 0)
(165.068 0 0)
(173.658 0 0)
(182.306 0 0)
(191 0 0)
(199.731 0 0)
(208.488 0 0)
(217.254 0 0)
(226.013 0 0)
(234.738 0 0)
(243.392 0 0)
(251.918 0 0)
(260.222 0 0)
(268.132 0 0)
(275.307 0 0)
(281.007 0 0)
(283.799 0 0)
(284.239 0 0)
(284.345 0 0)
(284.419 0 0)
(284.476 0 0)
(284.521 0 0)
(284.557 0 0)
(284.583 0 0)
(284.598 0 0)
(284.605 0 0)
(284.606 0 0)
(284.604 0 0)
(284.601 0 0)
(284.597 0 0)
(284.594 0 0)
(284.591 0 0)
(284.589 0 0)
(284.588 0 0)
(284.588 0 0)
(284.589 0 0)
(284.591 0 0)
(284.595 0 0)
(284.601 0 0)
(284.607 0 0)
(284.615 0 0)
(284.625 0 0)
(284.636 0 0)
(284.649 0 0)
(284.663 0 0)
(284.68 0 0)
(284.697 0 0)
(284.717 0 0)
(284.738 0 0)
(284.759 0 0)
(284.78 0 0)
(284.796 0 0)
(284.801 0 0)
(284.78 0 0)
(284.702 0 0)
(284.506 0 0)
(284.061 0 0)
(283.107 0 0)
(281.117 0 0)
(277.031 0 0)
(268.756 0 0)
(252.478 0 0)
(226.347 0 0)
)
;

boundaryField
{
    sides
    {
        type            zeroGradient;
    }
    empty
    {
        type            empty;
    }
}


// ************************************************************************* //
