/*--------------------------------*- C++ -*----------------------------------*\
| =========                 |                                                 |
| \\      /  F ield         | OpenFOAM: The Open Source CFD Toolbox           |
|  \\    /   O peration     | Version:  2312                                  |
|   \\  /    A nd           | Website:  www.openfoam.com                      |
|    \\/     M anipulation  |                                                 |
\*---------------------------------------------------------------------------*/
FoamFile
{
    version     2.0;
    format      ascii;
    arch        "LSB;label=32;scalar=64";
    class       volVectorField;
    location    "0.009";
    object      U;
}
// * * * * * * * * * * * * * * * * * * * * * * * * * * * * * * * * * * * * * //

dimensions      [0 1 -1 0 0 0 0];

internalField   nonuniform List<vector> 
100
(
(0.0195466 0 0)
(0.0367334 0 0)
(0.0670613 0 0)
(0.11891 0 0)
(0.204752 0 0)
(0.342344 0 0)
(0.555804 0 0)
(0.876306 0 0)
(1.3421 0 0)
(1.9976 0 0)
(2.89145 0 0)
(4.07369 0 0)
(5.59241 0 0)
(7.49032 0 0)
(9.80193 0 0)
(12.5516 0 0)
(15.7526 0 0)
(19.4078 0 0)
(23.5103 0 0)
(28.0453 0 0)
(32.9922 0 0)
(38.3264 0 0)
(44.021 0 0)
(50.0481 0 0)
(56.38 0 0)
(62.99 0 0)
(69.8529 0 0)
(76.9452 0 0)
(84.2452 0 0)
(91.7335 0 0)
(99.392 0 0)
(107.205 0 0)
(115.157 0 0)
(123.236 0 0)
(131.43 0 0)
(139.727 0 0)
(148.118 0 0)
(156.594 0 0)
(165.144 0 0)
(173.762 0 0)
(182.437 0 0)
(191.16 0 0)
(199.921 0 0)
(208.71 0 0)
(217.51 0 0)
(226.305 0 0)
(235.07 0 0)
(243.769 0 0)
(252.349 0 0)
(260.718 0 0)
(268.716 0 0)
(276.02 0 0)
(281.914 0 0)
(284.909 0 0)
(285.401 0 0)
(285.517 0 0)
(285.591 0 0)
(285.64 0 0)
(285.672 0 0)
(285.693 0 0)
(285.706 0 0)
(285.713 0 0)
(285.717 0 0)
(285.718 0 0)
(285.717 0 0)
(285.715 0 0)
(285.713 0 0)
(285.71 0 0)
(285.709 0 0)
(285.707 0 0)
(285.707 0 0)
(285.707 0 0)
(285.709 0 0)
(285.712 0 0)
(285.716 0 0)
(285.721 0 0)
(285.727 0 0)
(285.735 0 0)
(285.745 0 0)
(285.755 0 0)
(285.768 0 0)
(285.781 0 0)
(285.797 0 0)
(285.814 0 0)
(285.832 0 0)
(285.852 0 0)
(285.872 0 0)
(285.891 0 0)
(285.905 0 0)
(285.908 0 0)
(285.883 0 0)
(285.8 0 0)
(285.595 0 0)
(285.137 0 0)
(284.158 0 0)
(282.122 0 0)
(277.952 0 0)
(269.525 0 0)
(252.976 0 0)
(226.423 0 0)
)
;

boundaryField
{
    sides
    {
        type            zeroGradient;
    }
    empty
    {
        type            empty;
    }
}


// ************************************************************************* //
