/*--------------------------------*- C++ -*----------------------------------*\
| =========                 |                                                 |
| \\      /  F ield         | OpenFOAM: The Open Source CFD Toolbox           |
|  \\    /   O peration     | Version:  2312                                  |
|   \\  /    A nd           | Website:  www.openfoam.com                      |
|    \\/     M anipulation  |                                                 |
\*---------------------------------------------------------------------------*/
FoamFile
{
    version     2.0;
    format      ascii;
    arch        "LSB;label=32;scalar=64";
    class       volVectorField;
    location    "0.009";
    object      U;
}
// * * * * * * * * * * * * * * * * * * * * * * * * * * * * * * * * * * * * * //

dimensions      [0 1 -1 0 0 0 0];

internalField   nonuniform List<vector> 
100
(
(159.377 0 0)
(166.644 0 0)
(173.888 0 0)
(181.192 0 0)
(188.553 0 0)
(195.967 0 0)
(203.432 0 0)
(210.945 0 0)
(218.504 0 0)
(226.105 0 0)
(233.748 0 0)
(241.428 0 0)
(249.145 0 0)
(256.896 0 0)
(264.68 0 0)
(272.494 0 0)
(280.336 0 0)
(288.205 0 0)
(296.1 0 0)
(304.019 0 0)
(311.96 0 0)
(319.921 0 0)
(327.901 0 0)
(335.898 0 0)
(343.909 0 0)
(351.934 0 0)
(359.969 0 0)
(368.012 0 0)
(376.061 0 0)
(384.113 0 0)
(392.165 0 0)
(400.212 0 0)
(408.252 0 0)
(416.277 0 0)
(424.284 0 0)
(432.263 0 0)
(440.207 0 0)
(448.103 0 0)
(455.936 0 0)
(463.688 0 0)
(471.331 0 0)
(478.831 0 0)
(486.141 0 0)
(493.194 0 0)
(499.901 0 0)
(506.136 0 0)
(511.737 0 0)
(516.505 0 0)
(520.242 0 0)
(522.824 0 0)
(524.318 0 0)
(525.015 0 0)
(525.294 0 0)
(525.42 0 0)
(525.492 0 0)
(525.534 0 0)
(525.555 0 0)
(525.561 0 0)
(525.556 0 0)
(525.545 0 0)
(525.529 0 0)
(525.511 0 0)
(525.492 0 0)
(525.474 0 0)
(525.456 0 0)
(525.439 0 0)
(525.423 0 0)
(525.408 0 0)
(525.394 0 0)
(525.381 0 0)
(525.37 0 0)
(525.359 0 0)
(525.349 0 0)
(525.34 0 0)
(525.332 0 0)
(525.323 0 0)
(525.313 0 0)
(525.294 0 0)
(525.252 0 0)
(525.159 0 0)
(524.961 0 0)
(524.586 0 0)
(523.951 0 0)
(523.012 0 0)
(521.803 0 0)
(520.457 0 0)
(519.157 0 0)
(518.06 0 0)
(517.232 0 0)
(516.639 0 0)
(516.181 0 0)
(515.738 0 0)
(515.206 0 0)
(514.508 0 0)
(513.595 0 0)
(512.443 0 0)
(511.051 0 0)
(509.44 0 0)
(507.659 0 0)
(507.564 0 0)
)
;

boundaryField
{
    sides
    {
        type            zeroGradient;
    }
    empty
    {
        type            empty;
    }
}


// ************************************************************************* //
