/*--------------------------------*- C++ -*----------------------------------*\
| =========                 |                                                 |
| \\      /  F ield         | OpenFOAM: The Open Source CFD Toolbox           |
|  \\    /   O peration     | Version:  2312                                  |
|   \\  /    A nd           | Website:  www.openfoam.com                      |
|    \\/     M anipulation  |                                                 |
\*---------------------------------------------------------------------------*/
FoamFile
{
    version     2.0;
    format      ascii;
    arch        "LSB;label=32;scalar=64";
    class       volScalarField;
    location    "0.012";
    object      p;
}
// * * * * * * * * * * * * * * * * * * * * * * * * * * * * * * * * * * * * * //

dimensions      [1 -1 -2 0 0 0 0];

internalField   nonuniform List<scalar> 
100
(
98452.2
98054.5
97480.4
96786.9
95960.6
95007.1
93930.6
92738.9
91441.3
90048.8
88573.1
87025.9
85418.9
83763.3
82069.4
80346.6
78603.6
76847.9
75086.3
73324.7
71568.1
69821.1
68087.5
66370.5
64672.7
62997.1
61343.7
59720.8
58110.3
56565.7
54960.4
53576.4
51858.6
50786.3
48840.5
48078.1
46107.5
45280.6
43682.5
42580.8
41305.9
40141.7
38995.9
37888.2
36822.1
35800.2
34825.3
33900.1
33028.8
32218.5
31478.3
30816.7
30240.4
29756.3
29370.1
29078.8
28869.3
28726.5
28641.3
28603.2
28589.9
28575.4
28550.7
28530.8
28535
28561.3
28583.2
28574.9
28539
28504.3
28501.6
28538.6
28592.4
28624
28607.5
28551
28481.8
28426
28399.2
28405.5
28438.8
28486.8
28534.3
28572.4
28597.5
28609.2
28611.7
28609.9
28623.3
28639.1
28762.7
28816.4
29254.8
29265.1
30059.6
29911.2
30521.4
30401.5
30506.5
30494.3
)
;

boundaryField
{
    sides
    {
        type            zeroGradient;
    }
    empty
    {
        type            empty;
    }
}


// ************************************************************************* //
