/*--------------------------------*- C++ -*----------------------------------*\
| =========                 |                                                 |
| \\      /  F ield         | OpenFOAM: The Open Source CFD Toolbox           |
|  \\    /   O peration     | Version:  2312                                  |
|   \\  /    A nd           | Website:  www.openfoam.com                      |
|    \\/     M anipulation  |                                                 |
\*---------------------------------------------------------------------------*/
FoamFile
{
    version     2.0;
    format      ascii;
    arch        "LSB;label=32;scalar=64";
    class       volScalarField;
    location    "0.012";
    object      rho;
}
// * * * * * * * * * * * * * * * * * * * * * * * * * * * * * * * * * * * * * //

dimensions      [1 -3 0 0 0 0 0];

internalField   nonuniform List<scalar> 
100
(
1.14509
1.14218
1.13751
1.13161
1.12455
1.11639
1.10717
1.09695
1.08579
1.07378
1.06102
1.04758
1.03357
1.01906
1.00415
0.9889
0.973385
0.957665
0.941795
0.925823
0.909793
0.893743
0.877704
0.861707
0.845777
0.829936
0.814202
0.798597
0.783128
0.767815
0.752688
0.737647
0.723047
0.708119
0.694217
0.679615
0.665778
0.652468
0.638265
0.625669
0.612473
0.599849
0.587413
0.575391
0.563761
0.552468
0.54154
0.531097
0.521278
0.512166
0.503788
0.496195
0.489515
0.483895
0.479402
0.476041
0.473794
0.472459
0.471516
0.47046
0.469414
0.469082
0.469814
0.47079
0.470581
0.468747
0.466649
0.466328
0.468457
0.471294
0.471859
0.468573
0.462968
0.458807
0.459531
0.465985
0.475343
0.481903
0.479687
0.465485
0.44027
0.408156
0.374101
0.342119
0.314554
0.292251
0.275104
0.262503
0.253665
0.247854
0.24438
0.242964
0.242797
0.2442
0.245528
0.247276
0.248503
0.248479
0.248968
0.248935
)
;

boundaryField
{
    sides
    {
        type            zeroGradient;
    }
    empty
    {
        type            empty;
    }
}


// ************************************************************************* //
