/*--------------------------------*- C++ -*----------------------------------*\
| =========                 |                                                 |
| \\      /  F ield         | OpenFOAM: The Open Source CFD Toolbox           |
|  \\    /   O peration     | Version:  2312                                  |
|   \\  /    A nd           | Website:  www.openfoam.com                      |
|    \\/     M anipulation  |                                                 |
\*---------------------------------------------------------------------------*/
FoamFile
{
    version     2.0;
    format      ascii;
    arch        "LSB;label=32;scalar=64";
    class       volScalarField;
    location    "0.012";
    object      T;
}
// * * * * * * * * * * * * * * * * * * * * * * * * * * * * * * * * * * * * * //

dimensions      [0 0 0 1 0 0 0];

internalField   nonuniform List<scalar> 
100
(
298.848
298.398
297.87
297.293
296.604
295.802
294.886
293.859
292.725
291.491
290.164
288.752
287.263
285.704
284.084
282.409
280.686
278.921
277.12
275.287
273.426
271.542
269.639
267.718
265.784
263.839
261.879
259.933
257.919
256.071
253.804
252.458
249.297
249.289
244.539
245.894
240.716
241.222
237.886
236.555
234.417
232.604
230.748
228.878
227.027
225.238
223.526
221.866
220.235
218.654
217.183
215.872
214.726
213.743
212.945
212.322
211.792
211.34
211.135
211.327
211.7
211.742
211.229
210.645
210.769
211.788
212.904
212.989
211.754
210.224
209.952
211.699
214.666
216.852
216.386
212.967
208.269
205.031
205.784
212.109
224.521
242.595
265.12
290.29
316.007
340.262
361.501
378.831
392.213
401.631
409.097
412.25
418.81
416.551
425.545
420.451
426.909
425.273
425.904
425.791
)
;

boundaryField
{
    sides
    {
        type            zeroGradient;
    }
    empty
    {
        type            empty;
    }
}


// ************************************************************************* //
