/*--------------------------------*- C++ -*----------------------------------*\
| =========                 |                                                 |
| \\      /  F ield         | OpenFOAM: The Open Source CFD Toolbox           |
|  \\    /   O peration     | Version:  2312                                  |
|   \\  /    A nd           | Website:  www.openfoam.com                      |
|    \\/     M anipulation  |                                                 |
\*---------------------------------------------------------------------------*/
FoamFile
{
    version     2.0;
    format      ascii;
    arch        "LSB;label=32;scalar=64";
    class       volVectorField;
    location    "0.012";
    object      U;
}
// * * * * * * * * * * * * * * * * * * * * * * * * * * * * * * * * * * * * * //

dimensions      [0 1 -1 0 0 0 0];

internalField   nonuniform List<vector> 
100
(
(3.49804 0 0)
(4.77061 0 0)
(6.43057 0 0)
(8.37893 0 0)
(10.6395 0 0)
(13.2153 0 0)
(16.1102 0 0)
(19.3203 0 0)
(22.836 0 0)
(26.6428 0 0)
(30.7231 0 0)
(35.0571 0 0)
(39.6242 0 0)
(44.404 0 0)
(49.3763 0 0)
(54.5226 0 0)
(59.8251 0 0)
(65.2679 0 0)
(70.8363 0 0)
(76.5173 0 0)
(82.299 0 0)
(88.1708 0 0)
(94.1234 0 0)
(100.148 0 0)
(106.238 0 0)
(112.386 0 0)
(118.583 0 0)
(124.835 0 0)
(131.102 0 0)
(137.47 0 0)
(143.726 0 0)
(150.286 0 0)
(156.41 0 0)
(163.18 0 0)
(169.304 0 0)
(175.864 0 0)
(182.506 0 0)
(188.507 0 0)
(195.426 0 0)
(201.542 0 0)
(208.065 0 0)
(214.381 0 0)
(220.723 0 0)
(226.986 0 0)
(233.141 0 0)
(239.18 0 0)
(245.088 0 0)
(250.826 0 0)
(256.327 0 0)
(261.508 0 0)
(266.298 0 0)
(270.631 0 0)
(274.435 0 0)
(277.63 0 0)
(280.184 0 0)
(282.122 0 0)
(283.481 0 0)
(284.295 0 0)
(284.688 0 0)
(284.919 0 0)
(285.21 0 0)
(285.524 0 0)
(285.614 0 0)
(285.351 0 0)
(284.977 0 0)
(284.919 0 0)
(285.347 0 0)
(285.928 0 0)
(286.091 0 0)
(285.564 0 0)
(284.667 0 0)
(284.101 0 0)
(284.421 0 0)
(285.586 0 0)
(286.923 0 0)
(287.55 0 0)
(286.911 0 0)
(285.012 0 0)
(282.294 0 0)
(279.373 0 0)
(276.825 0 0)
(275.061 0 0)
(274.268 0 0)
(274.432 0 0)
(275.386 0 0)
(276.857 0 0)
(278.535 0 0)
(280.109 0 0)
(281.37 0 0)
(281.926 0 0)
(281.934 0 0)
(280.312 0 0)
(278.559 0 0)
(274.666 0 0)
(271.688 0 0)
(268.909 0 0)
(266.265 0 0)
(266.409 0 0)
(265.75 0 0)
(265.79 0 0)
)
;

boundaryField
{
    sides
    {
        type            mywaveTransmissive;
        gamma           1.4;
        value           nonuniform List<vector> 2((265.785 0 0) (3.01119 0 0));
    }
    empty
    {
        type            empty;
    }
}


// ************************************************************************* //
