/*--------------------------------*- C++ -*----------------------------------*\
| =========                 |                                                 |
| \\      /  F ield         | OpenFOAM: The Open Source CFD Toolbox           |
|  \\    /   O peration     | Version:  2312                                  |
|   \\  /    A nd           | Website:  www.openfoam.com                      |
|    \\/     M anipulation  |                                                 |
\*---------------------------------------------------------------------------*/
FoamFile
{
    version     2.0;
    format      ascii;
    arch        "LSB;label=32;scalar=64";
    class       volScalarField;
    location    "0.001";
    object      thermo:e;
}
// * * * * * * * * * * * * * * * * * * * * * * * * * * * * * * * * * * * * * //

dimensions      [0 2 -2 0 0 0 0];

internalField   nonuniform List<scalar> 
100
(
4.62859e+10
4.62892e+10
4.62951e+10
4.63027e+10
4.63114e+10
4.63209e+10
4.63307e+10
4.63406e+10
4.63505e+10
4.63601e+10
4.63693e+10
4.63782e+10
4.63866e+10
4.63945e+10
4.64019e+10
4.64088e+10
4.64152e+10
4.64211e+10
4.64266e+10
4.64316e+10
4.64362e+10
4.64405e+10
4.64443e+10
4.64479e+10
4.64511e+10
4.6454e+10
4.64566e+10
4.6459e+10
4.64612e+10
4.64632e+10
4.64649e+10
4.64665e+10
4.6468e+10
4.64692e+10
4.64704e+10
4.64714e+10
4.64724e+10
4.64732e+10
4.64739e+10
4.64746e+10
4.64752e+10
4.64757e+10
4.64762e+10
4.64766e+10
4.6477e+10
4.64773e+10
4.64776e+10
4.64778e+10
4.64781e+10
4.64783e+10
4.64784e+10
4.64786e+10
4.64787e+10
4.64789e+10
4.6479e+10
4.64791e+10
4.64791e+10
4.64792e+10
4.64793e+10
4.64793e+10
4.64794e+10
4.64794e+10
4.64794e+10
4.64795e+10
4.64795e+10
4.64795e+10
4.64795e+10
4.64796e+10
4.64796e+10
4.64796e+10
4.64796e+10
4.64796e+10
4.64796e+10
4.64796e+10
4.64796e+10
4.64796e+10
4.64796e+10
4.64796e+10
4.64796e+10
4.64796e+10
4.64796e+10
4.64796e+10
4.64796e+10
4.64797e+10
4.64797e+10
4.64797e+10
4.64797e+10
4.64797e+10
4.64797e+10
4.64797e+10
4.64797e+10
4.64797e+10
4.64797e+10
4.64797e+10
4.64797e+10
4.64797e+10
4.64797e+10
4.64797e+10
4.64797e+10
4.64797e+10
)
;

boundaryField
{
    sides
    {
        type            zeroGradient;
    }
    empty
    {
        type            empty;
    }
}


// ************************************************************************* //
