/*--------------------------------*- C++ -*----------------------------------*\
| =========                 |                                                 |
| \\      /  F ield         | OpenFOAM: The Open Source CFD Toolbox           |
|  \\    /   O peration     | Version:  2312                                  |
|   \\  /    A nd           | Website:  www.openfoam.com                      |
|    \\/     M anipulation  |                                                 |
\*---------------------------------------------------------------------------*/
FoamFile
{
    version     2.0;
    format      ascii;
    arch        "LSB;label=32;scalar=64";
    class       volScalarField;
    location    "2e-05";
    object      p;
}
// * * * * * * * * * * * * * * * * * * * * * * * * * * * * * * * * * * * * * //

dimensions      [1 -1 -2 0 0 0 0];

internalField   nonuniform List<scalar> 
500
(
2.33303e+06
2.33311e+06
2.33315e+06
2.33317e+06
2.33317e+06
2.33317e+06
2.33316e+06
2.33316e+06
2.33315e+06
2.33315e+06
2.33315e+06
2.33314e+06
2.33314e+06
2.33315e+06
2.33315e+06
2.33315e+06
2.33316e+06
2.33317e+06
2.33318e+06
2.33319e+06
2.3332e+06
2.33322e+06
2.33324e+06
2.33326e+06
2.33329e+06
2.33331e+06
2.33334e+06
2.33338e+06
2.33341e+06
2.33345e+06
2.33349e+06
2.33353e+06
2.33357e+06
2.33361e+06
2.33377e+06
2.33386e+06
2.33366e+06
2.3339e+06
2.33394e+06
2.33393e+06
2.33398e+06
2.33401e+06
2.33407e+06
2.33413e+06
2.33419e+06
2.33425e+06
2.33433e+06
2.33441e+06
2.3345e+06
2.33461e+06
2.33473e+06
2.33486e+06
2.335e+06
2.33516e+06
2.33533e+06
2.33551e+06
2.33571e+06
2.33593e+06
2.3362e+06
2.33649e+06
2.33684e+06
2.33722e+06
2.33767e+06
2.33814e+06
2.33868e+06
2.33922e+06
2.33982e+06
2.34044e+06
2.34115e+06
2.34196e+06
2.34287e+06
2.34389e+06
2.34502e+06
2.34627e+06
2.34769e+06
2.34927e+06
2.35102e+06
2.35289e+06
2.35488e+06
2.35718e+06
2.35979e+06
2.3627e+06
2.36598e+06
2.36961e+06
2.37354e+06
2.37764e+06
2.38222e+06
2.38759e+06
2.39368e+06
2.40049e+06
2.40766e+06
2.41507e+06
2.42361e+06
2.43363e+06
2.44489e+06
2.45661e+06
2.46864e+06
2.48327e+06
2.50003e+06
2.51742e+06
2.53542e+06
2.55734e+06
2.58214e+06
2.60614e+06
2.63486e+06
2.66934e+06
2.70146e+06
2.74919e+06
2.78465e+06
2.8466e+06
2.8874e+06
2.96402e+06
3.01348e+06
3.10705e+06
3.16818e+06
3.27771e+06
3.35659e+06
3.47904e+06
3.58665e+06
3.72909e+06
3.88165e+06
4.0603e+06
4.26367e+06
4.50323e+06
4.80495e+06
5.22743e+06
5.57859e+06
5.47701e+06
4.72031e+06
2.37231e+06
292361
103835
100058
99998.5
99997.6
99997.6
99997.6
99997.6
99997.6
99997.6
99997.6
99997.6
99997.6
99997.6
99997.6
99997.6
99997.6
99997.6
99997.6
99997.6
99997.6
99997.6
99997.6
99997.6
99997.6
99997.6
99997.6
99997.6
99997.6
99997.6
99997.6
99997.6
99997.6
99997.6
99997.6
99997.6
99997.6
99997.6
99997.6
99997.6
99997.6
99997.6
99997.6
99997.6
99997.6
99997.6
99997.6
99997.6
99997.6
99997.6
99997.6
99997.6
99997.6
99997.6
99997.6
99997.6
99997.6
99997.6
99997.6
99997.6
99997.6
99997.6
99997.6
99997.6
99997.6
99997.6
99997.6
99997.6
99997.6
99997.6
99997.6
99997.6
99997.6
99997.6
99997.6
99997.6
99997.6
99997.6
99997.6
99997.6
99997.6
99997.6
99997.6
99997.6
99997.6
99997.6
99997.6
99997.6
99997.6
99997.6
99997.6
99997.6
99997.6
99997.6
99997.6
99997.6
99997.6
99997.6
99997.6
99997.6
99997.6
99997.6
99997.6
99997.6
99997.6
99997.6
99997.6
99997.6
99997.6
99997.6
99997.6
99997.6
99997.6
99997.6
99997.6
99997.6
99997.6
99997.6
99997.6
99997.6
99997.6
99997.6
99997.6
99997.6
99997.6
99997.6
99997.6
99997.6
99997.6
99997.6
99997.6
99997.6
99997.6
99997.6
99997.6
99997.6
99997.6
99997.6
99997.6
99997.6
99997.6
99997.6
99997.6
99997.6
99997.6
99997.6
99997.6
99997.6
99997.6
99997.6
99997.6
99997.6
99997.6
99997.6
99997.6
99997.6
99997.6
99997.6
99997.6
99997.6
99997.6
99997.6
99997.6
99997.6
99997.6
99997.6
99997.6
99997.6
99997.6
99997.6
99997.6
99997.6
99997.6
99997.6
99997.6
99997.6
99997.6
99997.6
99997.6
99997.6
99997.6
99997.6
99997.6
99997.6
99997.6
99997.6
99997.6
99997.6
99997.6
99997.6
99997.6
99997.6
99997.6
99997.6
99997.6
99997.6
99997.6
99997.6
99997.6
99997.6
99997.6
99997.6
99997.6
99997.6
99997.6
99997.6
99997.6
99997.6
99997.6
99997.6
99997.6
99997.6
99997.6
99997.6
99997.6
99997.6
99997.6
99997.6
99997.6
99997.6
99997.6
99997.6
99997.6
99997.6
99997.6
99997.6
99997.6
99997.6
99997.6
99997.6
99997.6
99997.6
99997.6
99997.6
99997.6
99997.6
99997.6
99997.6
99997.6
99997.6
99997.6
99997.6
99997.6
99997.6
99997.6
99997.6
99997.6
99997.6
99997.6
99997.6
99997.6
99997.6
99997.6
99997.6
99997.6
99997.6
99997.6
99997.6
99997.6
99997.6
99997.6
99997.6
99997.6
99997.6
99997.6
99997.6
99997.6
99997.6
99997.6
99997.6
99997.6
99997.6
99997.6
99997.6
99997.6
99997.6
99997.6
99997.6
99997.6
99997.6
99997.6
99997.6
99997.6
99997.6
99997.6
99997.6
99997.6
99997.6
99997.6
99997.6
99997.6
99997.6
99997.6
99997.6
99997.6
99997.6
99997.6
99997.6
99997.6
99997.6
99997.6
99997.6
99997.6
99997.6
99997.6
99997.6
99997.6
99997.6
99997.6
99997.6
99997.6
99997.6
99997.6
99997.6
99997.6
99997.6
99997.6
99997.6
99997.6
99997.6
99997.6
99997.6
99997.6
99997.6
99997.6
99997.6
99997.6
99997.6
99997.6
99997.6
99997.6
99997.6
99997.6
99997.6
99997.6
99997.6
99997.6
99997.6
99997.6
99997.6
99997.6
99997.6
99997.6
99997.6
99997.6
99997.6
99997.6
99997.6
99997.6
99997.6
99997.6
99997.6
99997.6
99997.6
99997.6
99997.6
99997.6
99997.6
99997.6
99997.6
99997.6
99997.6
99997.6
99997.6
99997.6
99997.6
99997.6
99997.6
99997.6
99997.6
)
;

boundaryField
{
    wedge0
    {
        type            wedge;
    }
    wedge1
    {
        type            wedge;
    }
    wedge2
    {
        type            wedge;
    }
    wedge3
    {
        type            wedge;
    }
    outlet
    {
        type            zeroGradient;
    }
    defaultFaces
    {
        type            empty;
    }
}


// ************************************************************************* //
