/*--------------------------------*- C++ -*----------------------------------*\
| =========                 |                                                 |
| \\      /  F ield         | OpenFOAM: The Open Source CFD Toolbox           |
|  \\    /   O peration     | Version:  2312                                  |
|   \\  /    A nd           | Website:  www.openfoam.com                      |
|    \\/     M anipulation  |                                                 |
\*---------------------------------------------------------------------------*/
FoamFile
{
    version     2.0;
    format      ascii;
    arch        "LSB;label=32;scalar=64";
    class       volScalarField;
    location    "2e-05";
    object      T;
}
// * * * * * * * * * * * * * * * * * * * * * * * * * * * * * * * * * * * * * //

dimensions      [0 0 0 1 0 0 0];

internalField   nonuniform List<scalar> 
500
(
8.84159e+06
8.83967e+06
8.83573e+06
8.82935e+06
8.82003e+06
8.80722e+06
8.79038e+06
8.76896e+06
8.74243e+06
8.71025e+06
8.67192e+06
8.62691e+06
8.57476e+06
8.51499e+06
8.44716e+06
8.37085e+06
8.28565e+06
8.19122e+06
8.08723e+06
7.97337e+06
7.84939e+06
7.71508e+06
7.57028e+06
7.41487e+06
7.24878e+06
7.07201e+06
6.88461e+06
6.6867e+06
6.47846e+06
6.26017e+06
6.03216e+06
5.79485e+06
5.54874e+06
5.29443e+06
5.03267e+06
4.76409e+06
4.49377e+06
4.2293e+06
3.97393e+06
3.72898e+06
3.4947e+06
3.27104e+06
3.05795e+06
2.85528e+06
2.66288e+06
2.48055e+06
2.30804e+06
2.14511e+06
1.99149e+06
1.84687e+06
1.71094e+06
1.58339e+06
1.46389e+06
1.35209e+06
1.24767e+06
1.15026e+06
1.05954e+06
975171
896808
824125
756798
694510
636956
583835
534865
489766
448278
410148
375139
343023
313586
286623
261942
239366
218727
199867
182642
166914
152558
139463
127521
116633
106708
97661.8
89417.2
81902.2
75056.4
68823.2
63146.1
57974.8
53260
48959.1
45040.5
41470.8
38214.9
35238.4
32515
30032.2
27764.4
25684.5
23774.7
22032.5
20436.9
18962.5
17614.7
16387.5
15231.4
14211.5
13213
12361.7
11505
10786.6
10048.6
9434.3
8794.26
8261.77
7708.6
7239.53
6772.11
6361.54
5971.23
5612.5
5279.14
4973.73
4699.26
4453.05
4202.43
3910
3475.35
2560
704.567
307.409
300.08
300.001
300
300
300
300
300
300
300
300
300
300
300
300
300
300
300
300
300
300
300
300
300
300
300
300
300
300
300
300
300
300
300
300
300
300
300
300
300
300
300
300
300
300
300
300
300
300
300
300
300
300
300
300
300
300
300
300
300
300
300
300
300
300
300
300
300
300
300
300
300
300
300
300
300
300
300
300
300
300
300
300
300
300
300
300
300
300
300
300
300
300
300
300
300
300
300
300
300
300
300
300
300
300
300
300
300
300
300
300
300
300
300
300
300
300
300
300
300
300
300
300
300
300
300
300
300
300
300
300
300
300
300
300
300
300
300
300
300
300
300
300
300
300
300
300
300
300
300
300
300
300
300
300
300
300
300
300
300
300
300
300
300
300
300
300
300
300
300
300
300
300
300
300
300
300
300
300
300
300
300
300
300
300
300
300
300
300
300
300
300
300
300
300
300
300
300
300
300
300
300
300
300
300
300
300
300
300
300
300
300
300
300
300
300
300
300
300
300
300
300
300
300
300
300
300
300
300
300
300
300
300
300
300
300
300
300
300
300
300
300
300
300
300
300
300
300
300
300
300
300
300
300
300
300
300
300
300
300
300
300
300
300
300
300
300
300
300
300
300
300
300
300
300
300
300
300
300
300
300
300
300
300
300
300
300
300
300
300
300
300
300
300
300
300
300
300
300
300
300
300
300
300
300
300
300
300
300
300
300
300
300
300
300
300
300
300
300
300
300
300
300
300
300
300
300
300
300
300
300
300
300
300
300
300
300
300
300
300
300
300
300
300
300
300
300
300
300
300
300
300
300
300
300
300
300
300
300
300
300
300
300
300
300
300
300
300
300
)
;

boundaryField
{
    wedge0
    {
        type            wedge;
    }
    wedge1
    {
        type            wedge;
    }
    wedge2
    {
        type            wedge;
    }
    wedge3
    {
        type            wedge;
    }
    outlet
    {
        type            zeroGradient;
    }
    defaultFaces
    {
        type            empty;
    }
}


// ************************************************************************* //
