/*--------------------------------*- C++ -*----------------------------------*\
| =========                 |                                                 |
| \\      /  F ield         | OpenFOAM: The Open Source CFD Toolbox           |
|  \\    /   O peration     | Version:  2312                                  |
|   \\  /    A nd           | Website:  www.openfoam.com                      |
|    \\/     M anipulation  |                                                 |
\*---------------------------------------------------------------------------*/
FoamFile
{
    version     2.0;
    format      ascii;
    arch        "LSB;label=32;scalar=64";
    class       volScalarField;
    location    "2e-05";
    object      thermo:e;
}
// * * * * * * * * * * * * * * * * * * * * * * * * * * * * * * * * * * * * * //

dimensions      [0 2 -2 0 0 0 0];

internalField   nonuniform List<scalar> 
500
(
6.34561e+09
6.34423e+09
6.3414e+09
6.33682e+09
6.33013e+09
6.32094e+09
6.30885e+09
6.29348e+09
6.27444e+09
6.25135e+09
6.22383e+09
6.19154e+09
6.15411e+09
6.11121e+09
6.06253e+09
6.00776e+09
5.94661e+09
5.87884e+09
5.8042e+09
5.72248e+09
5.63351e+09
5.53712e+09
5.43319e+09
5.32165e+09
5.20245e+09
5.07558e+09
4.94108e+09
4.79904e+09
4.64959e+09
4.49292e+09
4.32928e+09
4.15896e+09
3.98233e+09
3.79982e+09
3.61195e+09
3.41918e+09
3.22518e+09
3.03537e+09
2.85209e+09
2.67629e+09
2.50814e+09
2.34763e+09
2.19469e+09
2.04924e+09
1.91115e+09
1.78029e+09
1.65648e+09
1.53955e+09
1.42929e+09
1.3255e+09
1.22794e+09
1.1364e+09
1.05063e+09
9.70398e+08
8.9545e+08
8.25543e+08
7.60435e+08
6.9988e+08
6.43639e+08
5.91474e+08
5.43154e+08
4.9845e+08
4.57143e+08
4.19019e+08
3.83873e+08
3.51505e+08
3.21729e+08
2.94363e+08
2.69237e+08
2.46188e+08
2.2506e+08
2.05709e+08
1.87996e+08
1.71793e+08
1.5698e+08
1.43445e+08
1.31082e+08
1.19794e+08
1.09491e+08
1.00093e+08
9.15219e+07
8.37075e+07
7.65843e+07
7.00919e+07
6.41747e+07
5.87812e+07
5.38679e+07
4.93944e+07
4.532e+07
4.16085e+07
3.82247e+07
3.5138e+07
3.23256e+07
2.97636e+07
2.74268e+07
2.52906e+07
2.3336e+07
2.15541e+07
1.99265e+07
1.84337e+07
1.70631e+07
1.58128e+07
1.46676e+07
1.36094e+07
1.26421e+07
1.17613e+07
1.09316e+07
1.01996e+07
9.48294e+06
8.87197e+06
8.25711e+06
7.74156e+06
7.21185e+06
6.771e+06
6.31164e+06
5.92947e+06
5.53246e+06
5.19581e+06
4.86034e+06
4.56568e+06
4.28555e+06
4.02809e+06
3.78884e+06
3.56964e+06
3.37266e+06
3.19595e+06
3.01608e+06
2.8062e+06
2.49426e+06
1.83731e+06
505667
220628
215367
215311
215310
215310
215310
215310
215310
215310
215310
215310
215310
215310
215310
215310
215310
215310
215310
215310
215310
215310
215310
215310
215310
215310
215310
215310
215310
215310
215310
215310
215310
215310
215310
215310
215310
215310
215310
215310
215310
215310
215310
215310
215310
215310
215310
215310
215310
215310
215310
215310
215310
215310
215310
215310
215310
215310
215310
215310
215310
215310
215310
215310
215310
215310
215310
215310
215310
215310
215310
215310
215310
215310
215310
215310
215310
215310
215310
215310
215310
215310
215310
215310
215310
215310
215310
215310
215310
215310
215310
215310
215310
215310
215310
215310
215310
215310
215310
215310
215310
215310
215310
215310
215310
215310
215310
215310
215310
215310
215310
215310
215310
215310
215310
215310
215310
215310
215310
215310
215310
215310
215310
215310
215310
215310
215310
215310
215310
215310
215310
215310
215310
215310
215310
215310
215310
215310
215310
215310
215310
215310
215310
215310
215310
215310
215310
215310
215310
215310
215310
215310
215310
215310
215310
215310
215310
215310
215310
215310
215310
215310
215310
215310
215310
215310
215310
215310
215310
215310
215310
215310
215310
215310
215310
215310
215310
215310
215310
215310
215310
215310
215310
215310
215310
215310
215310
215310
215310
215310
215310
215310
215310
215310
215310
215310
215310
215310
215310
215310
215310
215310
215310
215310
215310
215310
215310
215310
215310
215310
215310
215310
215310
215310
215310
215310
215310
215310
215310
215310
215310
215310
215310
215310
215310
215310
215310
215310
215310
215310
215310
215310
215310
215310
215310
215310
215310
215310
215310
215310
215310
215310
215310
215310
215310
215310
215310
215310
215310
215310
215310
215310
215310
215310
215310
215310
215310
215310
215310
215310
215310
215310
215310
215310
215310
215310
215310
215310
215310
215310
215310
215310
215310
215310
215310
215310
215310
215310
215310
215310
215310
215310
215310
215310
215310
215310
215310
215310
215310
215310
215310
215310
215310
215310
215310
215310
215310
215310
215310
215310
215310
215310
215310
215310
215310
215310
215310
215310
215310
215310
215310
215310
215310
215310
215310
215310
215310
215310
215310
215310
215310
215310
215310
215310
215310
215310
215310
215310
215310
215310
215310
215310
215310
215310
215310
215310
215310
215310
215310
215310
215310
215310
215310
215310
215310
215310
215310
215310
215310
215310
215310
215310
215310
215310
215310
215310
215310
215310
215310
215310
215310
215310
215310
215310
215310
215310
215310
215310
215310
215310
)
;

boundaryField
{
    wedge0
    {
        type            wedge;
    }
    wedge1
    {
        type            wedge;
    }
    wedge2
    {
        type            wedge;
    }
    wedge3
    {
        type            wedge;
    }
    outlet
    {
        type            zeroGradient;
    }
    defaultFaces
    {
        type            empty;
    }
}


// ************************************************************************* //
