/*--------------------------------*- C++ -*----------------------------------*\
| =========                 |                                                 |
| \\      /  F ield         | OpenFOAM: The Open Source CFD Toolbox           |
|  \\    /   O peration     | Version:  2312                                  |
|   \\  /    A nd           | Website:  www.openfoam.com                      |
|    \\/     M anipulation  |                                                 |
\*---------------------------------------------------------------------------*/
FoamFile
{
    version     2.0;
    format      ascii;
    arch        "LSB;label=32;scalar=64";
    class       volVectorField;
    location    "2e-05";
    object      U;
}
// * * * * * * * * * * * * * * * * * * * * * * * * * * * * * * * * * * * * * //

dimensions      [0 1 -1 0 0 0 0];

internalField   nonuniform List<vector> 
500
(
(10.8368 -6.44169e-09 7.01897e-09)
(22.0515 -7.02607e-09 7.5874e-09)
(34.5863 -8.11562e-09 8.68459e-09)
(47.4629 -9.04915e-09 9.61451e-09)
(60.4845 -8.27708e-09 8.80696e-09)
(73.5915 -8.93203e-09 9.46838e-09)
(86.801 -9.90189e-09 1.0433e-08)
(100.094 -1.0949e-08 1.14747e-08)
(113.47 -1.07739e-08 1.12976e-08)
(126.923 -9.67368e-09 1.0201e-08)
(140.455 -8.52462e-09 9.07434e-09)
(154.072 -7.84006e-09 8.29506e-09)
(167.777 -7.17153e-09 7.56361e-09)
(181.58 -6.20587e-09 6.54431e-09)
(195.488 -4.91482e-09 5.206e-09)
(209.546 -3.33709e-09 3.59007e-09)
(223.738 -1.59119e-09 1.78789e-09)
(238.081 -7.89579e-10 9.32435e-10)
(252.578 -2.74538e-11 1.2519e-10)
(267.246 -6.40546e-11 1.19064e-10)
(282.064 -1.02081e-10 1.82383e-10)
(297.077 -5.08317e-11 2.00025e-10)
(312.274 -2.2027e-10 4.49239e-10)
(327.691 -6.80965e-10 8.75538e-10)
(343.322 -8.88471e-10 1.01269e-09)
(359.207 -8.09342e-10 8.53709e-10)
(375.357 -8.01391e-10 9.67822e-10)
(391.805 -1.16901e-09 1.30708e-09)
(408.575 -8.19688e-10 9.31253e-10)
(425.698 -6.53971e-10 7.17681e-10)
(443.2 -6.81142e-10 6.83578e-10)
(461.114 -9.52936e-10 9.54396e-10)
(479.506 -7.80894e-10 7.80919e-10)
(498.244 -7.38908e-10 7.38904e-10)
(517.161 -7.27981e-10 7.27976e-10)
(532.8 -7.14216e-10 7.14216e-10)
(539.399 -6.66439e-10 6.66439e-10)
(544.186 -6.11601e-10 6.11601e-10)
(554.406 -6.22619e-10 6.22619e-10)
(567.493 -6.83377e-10 6.83377e-10)
(581.135 -7.80047e-10 7.80047e-10)
(595.132 -7.25812e-10 7.25812e-10)
(609.071 -5.55538e-10 5.55538e-10)
(623.088 -4.60817e-10 4.60817e-10)
(637.046 -3.19708e-10 3.19708e-10)
(650.995 -3.87943e-10 3.87943e-10)
(664.862 -2.85954e-10 2.85954e-10)
(678.661 -3.76319e-10 3.76319e-10)
(692.35 -2.4663e-10 2.4663e-10)
(705.921 -2.30985e-10 2.30985e-10)
(719.356 -2.34632e-10 2.34632e-10)
(732.649 -1.82189e-10 1.82189e-10)
(745.801 -1.47191e-10 1.47191e-10)
(758.839 -1.07284e-10 1.07284e-10)
(771.797 -8.13292e-11 8.13292e-11)
(784.716 -6.00494e-11 6.00494e-11)
(797.646 -7.1497e-11 7.1497e-11)
(810.642 -3.66917e-11 3.66917e-11)
(823.717 -5.29709e-11 5.29709e-11)
(836.981 6.51571e-12 -6.51571e-12)
(850.356 -1.77125e-12 1.77125e-12)
(864.027 1.56166e-12 -1.56166e-12)
(877.81 1.56459e-12 -1.56459e-12)
(891.94 1.20462e-12 -1.20462e-12)
(906.16 0 2.78435e-32)
(920.669 7.41361e-12 -7.41361e-12)
(935.173 -6.80382e-12 6.80382e-12)
(949.761 1.38019e-11 -1.38019e-11)
(964.124 6.60933e-12 -6.60933e-12)
(978.208 5.5905e-12 -5.5905e-12)
(991.991 5.02051e-12 -5.02051e-12)
(1005.53 7.7952e-13 -7.7952e-13)
(1018.96 4.1068e-13 -4.1068e-13)
(1032.45 1.01746e-12 -1.01746e-12)
(1046.06 -9.2475e-13 9.2475e-13)
(1060.02 4.70234e-12 -4.70234e-12)
(1074.36 5.55869e-12 -5.55869e-12)
(1089.12 2.11785e-12 -2.11785e-12)
(1104.11 2.53045e-12 -2.53045e-12)
(1118.86 4.09742e-13 -4.06059e-13)
(1133.12 2.04501e-12 -2.21052e-12)
(1147.04 -1.41741e-12 1.44685e-12)
(1160.84 2.52175e-12 -2.5064e-12)
(1174.83 1.17836e-12 -1.15749e-12)
(1189.29 2.86978e-12 -2.87362e-12)
(1204.42 2.0457e-13 -1.67074e-13)
(1219.73 1.84491e-13 -2.04163e-13)
(1234.46 -5.92147e-13 6.54881e-13)
(1248.83 -5.73149e-13 7.53414e-13)
(1263.13 1.0775e-13 -1.27715e-13)
(1278.01 -1.95476e-13 3.31524e-13)
(1293.73 -4.04964e-13 4.65739e-13)
(1309.46 3.84512e-13 -3.8454e-13)
(1324.32 -7.13908e-13 7.03474e-13)
(1339.2 -5.88413e-13 6.01499e-13)
(1354.88 -3.74934e-13 3.74939e-13)
(1371.64 -7.11714e-13 7.11664e-13)
(1387.52 -3.77453e-13 3.77424e-13)
(1402.83 -5.55404e-13 5.54732e-13)
(1419.22 -1.85918e-13 1.87545e-13)
(1437.04 -2.14934e-13 2.15254e-13)
(1453.26 -2.24223e-13 2.27796e-13)
(1469.72 -4.7943e-13 4.74741e-13)
(1488.28 -2.06709e-13 2.04764e-13)
(1505.88 -4.17834e-13 4.13352e-13)
(1523.23 -7.84965e-14 7.49737e-14)
(1544.93 -3.03394e-13 3.0059e-13)
(1560.9 -1.01745e-13 9.83683e-14)
(1586.32 -1.03293e-13 1.00484e-13)
(1600.66 2.33332e-14 -2.60641e-14)
(1629.04 -6.64564e-14 6.53957e-14)
(1642.79 1.35698e-13 -1.36536e-13)
(1673.89 1.3888e-13 -1.39772e-13)
(1687.61 1.53015e-13 -1.53324e-13)
(1719.96 1.73742e-13 -1.75346e-13)
(1735.08 2.49477e-13 -2.48807e-13)
(1766.12 3.14336e-13 -3.14491e-13)
(1784.71 1.89359e-13 -1.87933e-13)
(1812.99 2.40697e-13 -2.41224e-13)
(1837.25 1.44346e-13 -1.43656e-13)
(1865.39 4.96918e-14 -4.97156e-14)
(1893.97 1.26397e-13 -1.26434e-13)
(1924.21 1.04177e-13 -1.04203e-13)
(1956.98 8.59178e-14 -8.59445e-14)
(1996.55 6.86804e-14 -6.87043e-14)
(2051.9 4.25612e-14 -4.25789e-14)
(2079.68 2.3076e-14 -2.30994e-14)
(2056.92 1.72166e-14 -1.72359e-14)
(1894.79 1.19907e-14 -1.20121e-14)
(1304.94 6.17425e-15 -6.17425e-15)
(250.661 4.94955e-16 -4.94955e-16)
(9.0954 0 0)
(0.152213 -1.43392e-15 1.43392e-15)
(0.00240846 -1.04222e-14 1.04222e-14)
(3.80083e-05 -2.30949e-14 2.30949e-14)
(5.98218e-07 -2.05374e-14 2.05374e-14)
(9.37976e-09 4.89082e-15 -4.89082e-15)
(1.49498e-10 4.14969e-15 -4.14969e-15)
(3.51307e-12 0 0)
(-5.51641e-12 0 0)
(-1.21744e-11 0 0)
(1.05607e-11 -2.91376e-15 2.91376e-15)
(6.58582e-12 -1.19762e-14 1.19762e-14)
(-5.87155e-12 -1.60796e-16 1.60796e-16)
(-2.26937e-12 0 0)
(3.23651e-12 0 0)
(1.39423e-11 0 0)
(5.39341e-12 0 0)
(-2.39366e-12 0 0)
(-9.24607e-12 7.81389e-15 -7.81389e-15)
(-1.67141e-11 0 0)
(5.758e-12 -4.92392e-15 4.92392e-15)
(1.75279e-11 0 0)
(1.01956e-11 5.68713e-15 -5.68713e-15)
(4.55995e-12 -4.41269e-15 4.41269e-15)
(9.01132e-12 0 0)
(-7.9082e-12 -1.40034e-16 1.46088e-16)
(-1.50328e-11 -9.44686e-15 9.45834e-15)
(-4.40788e-12 -9.58235e-15 9.5999e-15)
(-8.93312e-12 -1.86577e-14 1.86806e-14)
(-4.35012e-12 -1.88018e-14 1.88169e-14)
(-7.59278e-12 -1.02251e-14 1.02322e-14)
(-7.13921e-12 -1.04441e-14 1.04475e-14)
(4.62423e-12 -2.80931e-14 2.80948e-14)
(4.16163e-12 -6.02488e-15 6.02488e-15)
(-4.0628e-12 0 0)
(8.71143e-12 0 0)
(1.05663e-11 6.14929e-15 -6.14929e-15)
(-5.81932e-12 0 0)
(1.93851e-12 0 0)
(7.86473e-12 0 0)
(-4.74387e-12 -7.69568e-15 7.68065e-15)
(8.3936e-14 -1.38806e-15 1.35566e-15)
(-1.24742e-12 -6.15291e-15 6.13616e-15)
(-3.46267e-12 -1.58284e-14 1.58166e-14)
(3.59255e-12 -1.67985e-14 1.67935e-14)
(-9.86634e-13 -7.33921e-15 7.33593e-15)
(2.57538e-12 0 0)
(7.01048e-12 -2.25017e-15 2.25017e-15)
(-9.33467e-12 9.93583e-15 -9.93583e-15)
(-9.25842e-12 8.73844e-15 -8.73844e-15)
(1.335e-12 1.17102e-15 -1.17102e-15)
(4.45546e-12 0 0)
(-7.9317e-12 0 0)
(9.60315e-12 0 0)
(1.75966e-11 0 0)
(4.03284e-12 0 0)
(-1.09225e-11 0 0)
(-1.00929e-11 0 0)
(-3.1035e-13 9.29977e-16 -9.29977e-16)
(2.31515e-12 6.67639e-15 -6.67639e-15)
(-2.91004e-12 0 0)
(-2.42016e-12 0 0)
(3.18519e-12 -1.5194e-15 1.5194e-15)
(-8.92756e-14 2.98198e-15 -2.98198e-15)
(-2.56156e-12 0 0)
(7.44953e-12 -8.46549e-15 8.46549e-15)
(-8.63091e-12 0 0)
(-1.07129e-11 1.02969e-15 -1.02605e-15)
(1.82134e-12 7.2583e-15 -7.25157e-15)
(-4.4848e-12 8.29093e-15 -8.2785e-15)
(-7.91845e-12 1.96374e-15 -1.9577e-15)
(-1.85509e-12 0 0)
(4.16731e-12 -2.49927e-15 2.49927e-15)
(2.06847e-11 -9.27308e-15 9.27308e-15)
(1.72987e-11 -1.16871e-14 1.16871e-14)
(-1.24503e-11 -2.88457e-15 2.88457e-15)
(-7.44074e-12 -6.04311e-15 6.04311e-15)
(-6.8006e-12 2.18775e-15 -2.18775e-15)
(1.09191e-11 0 0)
(2.02832e-11 0 0)
(1.6951e-11 -2.76052e-15 2.76052e-15)
(-6.75438e-12 -1.13664e-14 1.13664e-14)
(-3.68468e-11 -1.27137e-14 1.27137e-14)
(-1.98316e-11 -2.05496e-14 2.05496e-14)
(1.25778e-12 -2.31483e-14 2.31483e-14)
(-7.87165e-12 -1.0676e-14 1.0676e-14)
(6.65796e-12 -3.11848e-15 3.11848e-15)
(2.02307e-11 0 0)
(2.23677e-11 0 0)
(2.47371e-12 0 0)
(-1.16528e-11 0 0)
(5.97862e-12 1.99815e-16 -1.99815e-16)
(6.28369e-12 5.08789e-15 -5.08789e-15)
(1.93861e-12 1.24896e-14 -1.24896e-14)
(-3.00756e-12 1.6353e-15 -1.6353e-15)
(8.68121e-13 -5.76066e-15 5.76066e-15)
(-3.4632e-12 -1.47632e-14 1.47632e-14)
(3.95526e-13 -1.06455e-14 1.06455e-14)
(-3.26955e-12 -1.11028e-14 1.11028e-14)
(-9.99837e-12 -1.58902e-14 1.58902e-14)
(-7.94779e-12 -9.99985e-15 9.99985e-15)
(6.94374e-12 0 0)
(5.36117e-12 0 0)
(-3.99885e-12 0 0)
(-1.07817e-11 0 0)
(-1.32244e-11 0 0)
(7.25777e-12 0 0)
(5.42946e-12 0 0)
(7.74088e-13 -6.30884e-15 6.30884e-15)
(1.4008e-11 -1.35736e-14 1.35736e-14)
(1.32411e-11 -4.62162e-15 4.62162e-15)
(1.63603e-12 -1.05481e-15 1.05481e-15)
(-6.12508e-12 1.37479e-14 -1.37479e-14)
(-4.58292e-12 2.03488e-14 -2.03488e-14)
(2.06236e-12 1.63191e-14 -1.63191e-14)
(7.34447e-12 -3.69172e-15 3.69172e-15)
(-9.78223e-12 6.358e-17 -6.358e-17)
(-1.17404e-11 4.90314e-15 -4.90314e-15)
(3.35378e-12 -3.50615e-15 3.50615e-15)
(4.23719e-12 -8.02135e-16 8.02135e-16)
(3.24823e-12 0 0)
(1.28782e-11 0 0)
(2.54341e-12 0 0)
(-1.59003e-11 0 0)
(-1.77653e-11 0 0)
(-1.09471e-11 -2.71874e-15 2.71874e-15)
(7.61058e-12 -9.29367e-15 9.29367e-15)
(2.42738e-12 -2.04016e-15 2.04016e-15)
(-1.02585e-11 0 0)
(-5.75585e-13 0 0)
(5.05667e-12 0 0)
(-4.62054e-12 1.58346e-15 -1.58346e-15)
(1.60963e-12 6.15379e-15 -6.15379e-15)
(4.40864e-12 1.34184e-14 -1.34184e-14)
(1.08353e-12 1.13602e-14 -1.13602e-14)
(-7.00475e-14 1.37867e-14 -1.37867e-14)
(4.9873e-12 6.48199e-15 -6.48199e-15)
(5.56581e-12 6.50511e-17 -6.50511e-17)
(-6.57367e-13 0 0)
(-7.13072e-13 0 0)
(1.02272e-12 0 0)
(6.41834e-13 0 0)
(-6.67144e-12 -1.49773e-17 1.49773e-17)
(-4.24458e-12 -3.03286e-15 3.03286e-15)
(-3.28407e-13 -1.13183e-14 1.13183e-14)
(-1.47155e-12 -2.2833e-15 2.2833e-15)
(3.27899e-12 0 0)
(1.95657e-12 0 0)
(2.62426e-12 0 0)
(5.08647e-12 2.32757e-17 -2.32757e-17)
(6.96574e-12 4.96121e-15 -4.96121e-15)
(3.84135e-12 1.02691e-14 -1.02691e-14)
(6.6072e-12 3.86982e-15 -3.86982e-15)
(-1.3282e-11 -7.08416e-15 7.08416e-15)
(-2.72761e-11 -2.42799e-15 2.42799e-15)
(-1.35907e-12 0 0)
(1.29256e-11 0 0)
(8.3028e-12 -4.78805e-15 4.78805e-15)
(1.59057e-12 0 0)
(-3.35334e-12 0 0)
(-4.99013e-12 1.84021e-15 -1.84021e-15)
(-9.89623e-13 -3.02663e-15 3.02663e-15)
(-4.694e-12 0 0)
(-1.22726e-11 0 0)
(1.21161e-11 4.17189e-15 -4.17189e-15)
(1.03777e-11 -2.69992e-15 2.69992e-15)
(3.35234e-12 0 0)
(-2.04671e-12 0 0)
(-8.52369e-12 -1.03035e-16 1.03035e-16)
(-6.89673e-12 -5.45342e-15 5.45342e-15)
(5.66774e-12 4.12576e-15 -4.12576e-15)
(2.60968e-12 -1.23135e-15 1.23135e-15)
(-9.19444e-12 0 0)
(-2.30207e-12 2.43794e-15 -2.43794e-15)
(1.57022e-11 0 0)
(1.1375e-11 0 0)
(7.31344e-12 -8.02739e-16 8.02739e-16)
(-4.20806e-12 -9.26644e-15 9.26644e-15)
(-1.09153e-11 -8.74103e-15 8.74103e-15)
(-6.45886e-12 -1.7487e-15 1.7487e-15)
(-1.60042e-12 0 0)
(2.35383e-12 0 0)
(2.0898e-12 0 0)
(1.09097e-11 3.00886e-15 -3.00886e-15)
(8.03343e-12 0 0)
(3.51225e-12 0 0)
(-3.48491e-12 -1.62206e-16 1.62206e-16)
(-8.32496e-12 -5.35871e-15 5.35871e-15)
(9.14215e-12 -1.8735e-14 1.8735e-14)
(2.68677e-12 -2.09739e-14 2.09739e-14)
(-9.50403e-12 -2.06791e-14 2.06791e-14)
(5.53891e-13 -1.68915e-14 1.68915e-14)
(4.42235e-12 -1.80304e-14 1.80304e-14)
(7.62247e-12 -1.30441e-14 1.30441e-14)
(4.14057e-12 -5.04761e-15 5.04761e-15)
(-7.96103e-12 0 0)
(-9.39095e-12 0 0)
(1.10281e-12 2.09452e-15 -2.09452e-15)
(8.73223e-12 0 0)
(3.85175e-12 0 0)
(-6.33786e-12 0 0)
(-7.48792e-12 -1.30473e-15 1.30473e-15)
(-9.64781e-13 -5.98646e-15 5.98646e-15)
(-7.82705e-12 -7.11928e-15 7.11928e-15)
(-1.08553e-11 -1.10698e-15 1.10698e-15)
(1.2852e-11 0 0)
(1.66983e-11 0 0)
(1.44382e-11 0 0)
(-9.36843e-12 0 0)
(-2.36779e-11 -2.50447e-19 2.50447e-19)
(-1.72628e-11 -5.05345e-15 5.05345e-15)
(1.32921e-11 0 0)
(7.348e-12 0 0)
(-4.12338e-12 6.70321e-15 -6.70321e-15)
(8.56834e-13 2.27687e-15 -2.27687e-15)
(8.57616e-12 4.40282e-15 -4.40282e-15)
(1.05677e-11 0 0)
(2.13846e-12 -3.52e-15 3.52e-15)
(-2.97822e-12 -3.09705e-15 3.09705e-15)
(-5.54956e-12 -9.38476e-15 9.38476e-15)
(-8.53498e-12 -7.81254e-15 7.81254e-15)
(-4.11949e-12 -2.29516e-15 2.29516e-15)
(-1.56392e-12 0 0)
(6.9186e-12 0 0)
(8.99749e-12 2.38179e-15 -2.38179e-15)
(-5.74137e-13 0 0)
(-8.2628e-12 -7.57529e-15 7.57529e-15)
(-1.48974e-11 -7.87924e-15 7.87924e-15)
(-1.06249e-11 -3.831e-15 3.831e-15)
(8.42549e-12 -5.45019e-15 5.45019e-15)
(1.46157e-12 -4.63806e-16 4.63806e-16)
(9.59292e-12 0 0)
(1.06067e-11 -1.77471e-15 1.77471e-15)
(-2.19497e-12 7.91037e-16 -7.91037e-16)
(-1.24076e-12 -4.21654e-15 4.21654e-15)
(2.88284e-12 0 0)
(5.649e-14 2.23435e-15 -2.23435e-15)
(1.03884e-12 0 0)
(-4.33133e-12 0 0)
(-7.0301e-12 -1.76041e-15 1.76041e-15)
(-6.16154e-13 -6.29106e-15 6.29106e-15)
(1.65033e-12 -8.77257e-15 8.77257e-15)
(1.01329e-11 -1.33117e-14 1.33117e-14)
(9.39637e-12 -1.57667e-14 1.57667e-14)
(-7.65371e-12 -9.21115e-15 9.21115e-15)
(1.26888e-12 -2.67435e-15 2.67435e-15)
(7.30531e-12 0 0)
(-2.13593e-12 0 0)
(-1.48399e-11 2.39428e-15 -2.39428e-15)
(-1.11494e-11 1.33235e-15 -1.33235e-15)
(-8.23162e-12 3.97716e-15 -3.97716e-15)
(7.6641e-12 0 0)
(1.09723e-11 0 0)
(-8.68205e-12 -1.52894e-15 1.52894e-15)
(-1.38909e-11 0 0)
(-8.07089e-12 0 0)
(-3.19153e-12 9.8909e-16 -9.8909e-16)
(1.03415e-11 6.4563e-15 -6.4563e-15)
(1.43208e-11 5.92385e-15 -5.92385e-15)
(1.12047e-11 2.11832e-15 -2.11832e-15)
(1.00934e-11 0 0)
(8.87487e-12 0 0)
(1.87638e-12 2.17117e-15 -2.17117e-15)
(-4.71927e-12 0 0)
(-8.47843e-12 0 0)
(-1.71811e-11 0 0)
(-2.7338e-12 0 0)
(4.93301e-12 0 0)
(5.17316e-12 0 0)
(2.06501e-12 0 0)
(1.57571e-12 0 0)
(1.50434e-11 -1.00791e-15 1.00791e-15)
(1.53371e-11 2.58857e-15 -2.58857e-15)
(-1.13511e-11 9.79481e-15 -9.79481e-15)
(-4.66495e-12 1.30386e-14 -1.30386e-14)
(2.88801e-12 1.24784e-14 -1.24784e-14)
(-7.87541e-12 5.58392e-15 -5.58392e-15)
(-6.37087e-12 1.4387e-15 -1.4387e-15)
(-7.68277e-12 -1.40987e-15 1.40987e-15)
(-1.27075e-11 0 0)
(-1.27659e-11 0 0)
(1.29709e-11 0 0)
(1.45169e-11 0 0)
(-1.14582e-11 0 0)
(-5.10893e-12 0 0)
(-3.33443e-12 0 0)
(-5.94757e-12 0 0)
(-7.54611e-12 -1.11339e-15 1.11339e-15)
(-2.99333e-12 1.10308e-15 -1.10308e-15)
(6.44789e-13 0 0)
(7.71885e-12 -1.30971e-15 1.30971e-15)
(6.86685e-12 -4.78263e-15 4.78263e-15)
(4.64668e-12 -3.72589e-15 3.72589e-15)
(1.67503e-11 -4.89676e-15 4.89676e-15)
(1.29143e-11 -2.66808e-15 2.66808e-15)
(-9.97416e-12 -4.52337e-15 4.52337e-15)
(-1.07283e-11 -1.84903e-15 1.84903e-15)
(1.17662e-11 -2.16465e-15 2.16465e-15)
(4.99663e-12 1.81324e-15 -1.81324e-15)
(-7.48729e-12 1.2155e-15 -1.2155e-15)
(-6.92825e-12 2.6964e-15 -2.6964e-15)
(3.95041e-12 7.28059e-16 -7.28059e-16)
(-3.78809e-12 2.33509e-15 -2.33509e-15)
(-4.40271e-12 4.85613e-16 -4.85613e-16)
(2.8367e-12 1.4314e-15 -1.4314e-15)
(8.5563e-12 -1.29496e-15 1.29496e-15)
(1.6848e-11 -1.90232e-17 1.90232e-17)
(8.46372e-12 0 0)
(-1.82508e-12 -3.29667e-15 3.29667e-15)
(-5.55976e-12 -1.12567e-14 1.12567e-14)
(-2.48152e-11 -1.01066e-14 1.01066e-14)
(-1.49118e-11 -1.42632e-15 1.42632e-15)
(1.69216e-12 1.01761e-14 -1.01761e-14)
(-1.3534e-11 1.09535e-14 -1.09535e-14)
(-2.84021e-12 5.3877e-15 -5.3877e-15)
(1.39736e-11 2.11929e-15 -2.11929e-15)
(1.18223e-11 1.35404e-16 -1.35404e-16)
(7.73583e-12 2.07383e-15 -2.07383e-15)
(1.13514e-11 5.26065e-15 -5.26065e-15)
(3.30604e-12 1.58095e-15 -1.58095e-15)
(-9.01034e-13 -9.89738e-16 9.89738e-16)
(-3.79969e-12 -6.5676e-15 6.5676e-15)
(-8.51535e-12 -2.25955e-15 2.25955e-15)
(-5.99972e-12 0 0)
(3.79164e-12 0 0)
(9.08823e-12 -8.14435e-16 8.14435e-16)
(6.83799e-12 -5.30867e-15 5.30867e-15)
(2.63287e-12 -1.65638e-14 1.65638e-14)
(-4.74211e-12 -1.9464e-14 1.9464e-14)
(-9.46563e-13 -1.78017e-14 1.78017e-14)
(1.47355e-12 -1.39997e-14 1.39997e-14)
(-9.85276e-15 -8.09602e-15 8.09602e-15)
(-6.69775e-12 -1.76731e-15 1.76731e-15)
(-1.00002e-11 0 0)
(-5.13681e-12 0 0)
(2.27432e-13 0 0)
(6.01375e-12 0 0)
(3.146e-12 0 0)
(-1.00104e-11 0 0)
(-1.01651e-11 0 0)
(1.42957e-11 5.54718e-16 -5.54718e-16)
(1.41827e-11 4.78006e-15 -4.78006e-15)
(7.55684e-12 -2.25828e-16 2.25828e-16)
(-6.44131e-14 -8.29413e-15 8.29413e-15)
(-6.89352e-12 -6.33439e-15 6.33439e-15)
(8.64794e-12 -8.00895e-15 8.00895e-15)
(9.08001e-12 -1.83988e-15 1.83988e-15)
(3.98701e-12 1.22612e-15 -1.22612e-15)
(-1.4131e-11 7.13707e-15 -7.13707e-15)
(-1.9486e-11 1.37223e-15 -1.37223e-15)
(-1.18649e-11 0 0)
(1.0843e-11 0 0)
(2.0325e-11 0 0)
(8.76879e-12 -1.65411e-16 1.65411e-16)
(-1.27273e-11 -4.02076e-15 4.02076e-15)
(-1.54924e-11 2.24595e-15 -2.24595e-15)
(-5.13035e-12 0 0)
(8.56512e-13 -5.04975e-15 5.04975e-15)
(-4.24059e-12 -1.05017e-14 1.05017e-14)
(-2.80444e-12 -1.18079e-14 1.18079e-14)
(-4.91277e-13 -9.50555e-15 9.50555e-15)
(7.11022e-12 -4.46179e-15 4.46179e-15)
(1.94405e-12 -1.2984e-15 1.2984e-15)
(-9.06861e-12 0 0)
(-7.81522e-12 0 0)
(5.95003e-12 -2.47574e-15 2.47574e-15)
(2.36475e-11 -5.57655e-15 5.57655e-15)
(2.08025e-11 -8.13664e-16 8.13664e-16)
(1.52501e-11 0 0)
)
;

boundaryField
{
    wedge0
    {
        type            wedge;
    }
    wedge1
    {
        type            wedge;
    }
    wedge2
    {
        type            wedge;
    }
    wedge3
    {
        type            wedge;
    }
    outlet
    {
        type            zeroGradient;
    }
    defaultFaces
    {
        type            empty;
    }
}


// ************************************************************************* //
