/*--------------------------------*- C++ -*----------------------------------*\
| =========                 |                                                 |
| \\      /  F ield         | OpenFOAM: The Open Source CFD Toolbox           |
|  \\    /   O peration     | Version:  2312                                  |
|   \\  /    A nd           | Website:  www.openfoam.com                      |
|    \\/     M anipulation  |                                                 |
\*---------------------------------------------------------------------------*/
FoamFile
{
    version     2.0;
    format      ascii;
    arch        "LSB;label=32;scalar=64";
    class       volScalarField;
    location    "0.007";
    object      p;
}
// * * * * * * * * * * * * * * * * * * * * * * * * * * * * * * * * * * * * * //

dimensions      [1 -1 -2 0 0 0 0];

internalField   nonuniform List<scalar> 
100
(
100207
100207
100207
100207
100207
100207
100206
100206
100205
100202
100196
100185
100164
100126
100059
99947.3
99768
99493
99088.9
98520.3
97753.2
96759.4
95519.9
94027.7
92288.1
90317.4
88140.4
85787.7
83292.2
80686.8
78002.9
75269.1
72510.3
69748.8
67000.6
64290.3
61597.2
59036.7
56328.6
54161.8
51176.3
49653.1
46516.4
45040.4
42637.7
40734.8
38851.8
37101.1
35468.4
33963.5
32610.9
31427.3
30443.3
29709.3
29233
28931.7
28707.5
28547.4
28497
28564.3
28664.6
28681.7
28588.4
28452.7
28346.3
28309.5
28347.9
28435.1
28526.6
28595.3
28631
28635.3
28619.6
28596
28573.6
28556.6
28546
28540.4
28537.5
28533.2
28522.4
28504.5
28498.7
28560.3
28751.3
28972.6
28618.4
26537.5
22183.4
16938.5
12984.7
11022.6
10316
10103.1
10043.2
10026.8
10022.3
10021.1
10020.8
10020.7
)
;

boundaryField
{
    sides
    {
        type            zeroGradient;
    }
    empty
    {
        type            empty;
    }
}


// ************************************************************************* //
