/*--------------------------------*- C++ -*----------------------------------*\
| =========                 |                                                 |
| \\      /  F ield         | OpenFOAM: The Open Source CFD Toolbox           |
|  \\    /   O peration     | Version:  2312                                  |
|   \\  /    A nd           | Website:  www.openfoam.com                      |
|    \\/     M anipulation  |                                                 |
\*---------------------------------------------------------------------------*/
FoamFile
{
    version     2.0;
    format      ascii;
    arch        "LSB;label=32;scalar=64";
    class       volScalarField;
    location    "0.007";
    object      rho;
}
// * * * * * * * * * * * * * * * * * * * * * * * * * * * * * * * * * * * * * //

dimensions      [1 -3 0 0 0 0 0];

internalField   nonuniform List<scalar> 
100
(
1.16102
1.16102
1.16102
1.16102
1.16102
1.16102
1.16102
1.16101
1.161
1.16097
1.16092
1.16083
1.16064
1.1603
1.15971
1.15873
1.15715
1.15475
1.15123
1.1463
1.13965
1.13106
1.12035
1.10745
1.09238
1.07527
1.05629
1.03567
1.01367
0.990529
0.966503
0.941812
0.916658
0.891221
0.865651
0.840092
0.814622
0.789407
0.764471
0.73972
0.716113
0.691556
0.669155
0.647158
0.623634
0.603792
0.583959
0.564342
0.545544
0.528534
0.513815
0.501406
0.490931
0.481686
0.473656
0.468565
0.468327
0.471458
0.472531
0.467611
0.459473
0.455395
0.460497
0.47262
0.481976
0.477298
0.454025
0.416775
0.374628
0.335484
0.303483
0.279562
0.262909
0.252018
0.245307
0.241406
0.23927
0.238172
0.237645
0.237401
0.237259
0.237123
0.237036
0.237293
0.238388
0.240186
0.239797
0.230269
0.205787
0.171392
0.141594
0.125128
0.118816
0.116864
0.116311
0.116159
0.116117
0.116106
0.116103
0.116102
)
;

boundaryField
{
    sides
    {
        type            zeroGradient;
    }
    empty
    {
        type            empty;
    }
}


// ************************************************************************* //
