/*--------------------------------*- C++ -*----------------------------------*\
| =========                 |                                                 |
| \\      /  F ield         | OpenFOAM: The Open Source CFD Toolbox           |
|  \\    /   O peration     | Version:  2312                                  |
|   \\  /    A nd           | Website:  www.openfoam.com                      |
|    \\/     M anipulation  |                                                 |
\*---------------------------------------------------------------------------*/
FoamFile
{
    version     2.0;
    format      ascii;
    arch        "LSB;label=32;scalar=64";
    class       volScalarField;
    location    "0.007";
    object      T;
}
// * * * * * * * * * * * * * * * * * * * * * * * * * * * * * * * * * * * * * //

dimensions      [0 0 0 1 0 0 0];

internalField   nonuniform List<scalar> 
100
(
300
300
300
300
300
300
300
299.999
299.998
299.997
299.993
299.985
299.971
299.944
299.896
299.815
299.684
299.479
299.174
298.739
298.14
297.352
296.349
295.118
293.653
291.956
290.039
287.917
285.609
283.138
280.525
277.789
274.951
272.028
269.029
266
262.826
259.947
256.113
254.501
248.4
249.564
241.625
241.911
237.644
234.499
231.255
228.511
225.983
223.358
220.607
217.862
215.543
214.384
214.523
214.618
213.064
210.468
209.62
212.326
216.845
218.917
215.787
209.254
204.425
206.161
217.023
237.147
264.675
296.269
327.918
356.03
378.373
394.4
404.873
411.171
414.687
416.518
417.399
417.765
417.856
417.833
417.902
418.351
419.216
419.279
414.826
400.579
374.691
343.516
318.75
306.193
301.787
300.494
300.135
300.036
300.01
300.003
300.001
300
)
;

boundaryField
{
    sides
    {
        type            zeroGradient;
    }
    empty
    {
        type            empty;
    }
}


// ************************************************************************* //
