/*--------------------------------*- C++ -*----------------------------------*\
| =========                 |                                                 |
| \\      /  F ield         | OpenFOAM: The Open Source CFD Toolbox           |
|  \\    /   O peration     | Version:  2312                                  |
|   \\  /    A nd           | Website:  www.openfoam.com                      |
|    \\/     M anipulation  |                                                 |
\*---------------------------------------------------------------------------*/
FoamFile
{
    version     2.0;
    format      ascii;
    arch        "LSB;label=32;scalar=64";
    class       volScalarField;
    location    "0.00011";
    object      p;
}
// * * * * * * * * * * * * * * * * * * * * * * * * * * * * * * * * * * * * * //

dimensions      [1 -1 -2 0 0 0 0];

internalField   nonuniform List<scalar> 
500
(
336397
336400
336402
336402
336403
336403
336403
336403
336403
336403
336403
336404
336404
336404
336404
336404
336404
336404
336404
336404
336404
336404
336404
336404
336404
336404
336404
336404
336404
336404
336404
336405
336405
336405
336405
336405
336405
336405
336405
336405
336406
336406
336406
336406
336406
336407
336407
336407
336407
336407
336408
336408
336409
336412
336419
336404
336402
336418
336413
336412
336412
336412
336413
336413
336414
336415
336415
336416
336417
336418
336419
336420
336422
336423
336424
336426
336427
336429
336431
336433
336435
336437
336440
336442
336445
336448
336451
336455
336458
336462
336466
336470
336475
336480
336485
336490
336496
336502
336508
336514
336521
336529
336536
336544
336553
336562
336572
336582
336592
336604
336616
336630
336644
336659
336676
336693
336712
336733
336755
336778
336803
336830
336859
336888
336920
336953
336988
337025
337065
337106
337151
337199
337251
337306
337365
337428
337495
337566
337642
337722
337805
337893
337987
338087
338194
338309
338431
338561
338698
338842
338993
339151
339321
339502
339696
339901
340118
340345
340582
340830
341094
341379
341682
342001
342334
342680
343040
343427
343841
344281
344741
345214
345705
346233
346797
347394
348012
348645
349318
350040
350805
351595
352403
353269
354195
355167
356156
357191
358309
359492
360694
361940
363292
364723
366163
367679
369320
371027
372743
374611
376599
378581
380699
382984
385278
387700
390327
392942
395741
398755
401752
405097
408344
412048
415565
419687
423488
428068
432171
437208
441669
447183
452058
458103
463431
470065
475883
483177
489517
497565
504453
513345
520781
530519
538557
549104
557850
569146
578755
590795
601502
614427
626331
640191
653293
668069
682435
698207
714235
731266
748926
767397
786730
807346
830590
859925
885448
890547
867761
760416
442262
145962
103200
100197
100010
99998.3
99997.6
99997.6
99997.6
99997.6
99997.6
99997.6
99997.6
99997.6
99997.6
99997.6
99997.6
99997.6
99997.6
99997.6
99997.6
99997.6
99997.6
99997.6
99997.6
99997.6
99997.6
99997.6
99997.6
99997.6
99997.6
99997.6
99997.6
99997.6
99997.6
99997.6
99997.6
99997.6
99997.6
99997.6
99997.6
99997.6
99997.6
99997.6
99997.6
99997.6
99997.6
99997.6
99997.6
99997.6
99997.6
99997.6
99997.6
99997.6
99997.6
99997.6
99997.6
99997.6
99997.6
99997.6
99997.6
99997.6
99997.6
99997.6
99997.6
99997.6
99997.6
99997.6
99997.6
99997.6
99997.6
99997.6
99997.6
99997.6
99997.6
99997.6
99997.6
99997.6
99997.6
99997.6
99997.6
99997.6
99997.6
99997.6
99997.6
99997.6
99997.6
99997.6
99997.6
99997.6
99997.6
99997.6
99997.6
99997.6
99997.6
99997.6
99997.6
99997.6
99997.6
99997.6
99997.6
99997.6
99997.6
99997.6
99997.6
99997.6
99997.6
99997.6
99997.6
99997.6
99997.6
99997.6
99997.6
99997.6
99997.6
99997.6
99997.6
99997.6
99997.6
99997.6
99997.6
99997.6
99997.6
99997.6
99997.6
99997.6
99997.6
99997.6
99997.6
99997.6
99997.6
99997.6
99997.6
99997.6
99997.6
99997.6
99997.6
99997.6
99997.6
99997.6
99997.6
99997.6
99997.6
99997.6
99997.6
99997.6
99997.6
99997.6
99997.6
99997.6
99997.6
99997.6
99997.6
99997.6
99997.6
99997.6
99997.6
99997.6
99997.6
99997.6
99997.6
99997.6
99997.6
99997.6
99997.6
99997.6
99997.6
99997.6
99997.6
99997.6
99997.6
99997.6
99997.6
99997.6
99997.6
99997.6
99997.6
99997.6
99997.6
99997.6
99997.6
99997.6
99997.6
99997.6
99997.6
99997.6
99997.6
99997.6
99997.6
99997.6
99997.6
99997.6
99997.6
99997.6
99997.6
99997.6
99997.6
99997.6
99997.6
99997.6
99997.6
99997.6
99997.6
99997.6
99997.6
99997.6
99997.6
99997.6
99997.6
99997.6
99997.6
99997.6
99997.6
99997.6
99997.6
99997.6
99997.6
99997.6
99997.6
99997.6
99997.6
99997.6
99997.6
99997.6
99997.6
99997.6
99997.6
99997.6
99997.6
99997.6
99997.6
99997.6
99997.6
99997.6
99997.6
99997.6
99997.6
99997.6
99997.6
99997.6
)
;

boundaryField
{
    wedge0
    {
        type            wedge;
    }
    wedge1
    {
        type            wedge;
    }
    wedge2
    {
        type            wedge;
    }
    wedge3
    {
        type            wedge;
    }
    outlet
    {
        type            zeroGradient;
    }
    defaultFaces
    {
        type            empty;
    }
}


// ************************************************************************* //
