/*--------------------------------*- C++ -*----------------------------------*\
| =========                 |                                                 |
| \\      /  F ield         | OpenFOAM: The Open Source CFD Toolbox           |
|  \\    /   O peration     | Version:  2312                                  |
|   \\  /    A nd           | Website:  www.openfoam.com                      |
|    \\/     M anipulation  |                                                 |
\*---------------------------------------------------------------------------*/
FoamFile
{
    version     2.0;
    format      ascii;
    arch        "LSB;label=32;scalar=64";
    class       volScalarField;
    location    "0.00011";
    object      rho;
}
// * * * * * * * * * * * * * * * * * * * * * * * * * * * * * * * * * * * * * //

dimensions      [1 -3 0 0 0 0 0];

internalField   nonuniform List<scalar> 
500
(
0.000256098
0.000256116
0.000256149
0.000256201
0.000256277
0.000256381
0.000256518
0.000256693
0.000256911
0.000257175
0.000257493
0.000257867
0.000258303
0.000258807
0.000259384
0.000260038
0.000260776
0.000261603
0.000262525
0.000263549
0.00026468
0.000265926
0.000267292
0.000268787
0.000270419
0.000272194
0.000274123
0.000276214
0.000278477
0.000280923
0.000283562
0.000286407
0.000289471
0.000292768
0.000296312
0.000300121
0.000304211
0.000308604
0.000313318
0.000318379
0.00032381
0.000329641
0.000335901
0.000342624
0.000349847
0.000357613
0.000365966
0.000374957
0.000384645
0.000395091
0.000406369
0.000418557
0.000431748
0.000446045
0.000461567
0.000478323
0.000496224
0.000515156
0.000535057
0.000555975
0.000577964
0.000601082
0.00062539
0.000650957
0.000677854
0.000706159
0.000735951
0.000767318
0.000800351
0.000835146
0.000871806
0.000910442
0.000951168
0.000994108
0.00103939
0.00108716
0.00113756
0.00119074
0.00124688
0.00130614
0.00136873
0.00143482
0.00150464
0.0015784
0.00165636
0.00173874
0.00182583
0.0019179
0.00201526
0.00211822
0.00222712
0.00234232
0.00246419
0.00259313
0.00272958
0.00287397
0.00302679
0.00318853
0.00335973
0.00354096
0.0037328
0.00393589
0.00415089
0.0043785
0.00461947
0.00487457
0.00514464
0.00543053
0.00573318
0.00605355
0.00639265
0.00675156
0.00713141
0.00753338
0.00795872
0.00840875
0.00888483
0.00938841
0.009921
0.0104842
0.0110796
0.011709
0.0123742
0.0130771
0.0138196
0.0146038
0.0154319
0.016306
0.0172284
0.0182016
0.0192281
0.0203103
0.0214512
0.0226532
0.0239194
0.0252527
0.0266561
0.0281327
0.0296858
0.0313186
0.0330345
0.0348372
0.0367301
0.0387172
0.0408023
0.0429893
0.0452823
0.0476856
0.0502032
0.0528395
0.0555991
0.0584866
0.061507
0.0646654
0.0679667
0.0714163
0.0750189
0.0787802
0.0827051
0.0867996
0.0910704
0.0955238
0.100166
0.105002
0.110039
0.115283
0.120739
0.126419
0.13233
0.138478
0.144871
0.151513
0.158416
0.165591
0.17305
0.180799
0.188845
0.197197
0.205871
0.214883
0.224244
0.233956
0.24403
0.254494
0.265363
0.276644
0.288338
0.300473
0.313081
0.32617
0.339733
0.353796
0.368411
0.383583
0.399287
0.415582
0.432513
0.450068
0.468226
0.487104
0.506704
0.526948
0.547976
0.569824
0.592389
0.615808
0.640151
0.665254
0.691334
0.718432
0.746403
0.775529
0.805532
0.836826
0.869017
0.902663
0.937188
0.973365
1.01035
1.04919
1.08878
1.13046
1.17286
1.21763
1.26305
1.31114
1.35977
1.41144
1.46346
1.51902
1.57454
1.63429
1.69333
1.75746
1.82029
1.88884
1.9558
2.02867
2.10022
2.17741
2.25412
2.33603
2.41811
2.50494
2.5924
2.68413
2.77705
2.87391
2.97309
3.07584
3.18151
3.29037
3.4025
3.51881
3.64305
3.78791
3.91799
3.97778
3.95805
3.66464
2.56014
1.39666
1.18326
1.16256
1.1611
1.16101
1.161
1.161
1.161
1.161
1.161
1.161
1.161
1.161
1.161
1.161
1.161
1.161
1.161
1.161
1.161
1.161
1.161
1.161
1.161
1.161
1.161
1.161
1.161
1.161
1.161
1.161
1.161
1.161
1.161
1.161
1.161
1.161
1.161
1.161
1.161
1.161
1.161
1.161
1.161
1.161
1.161
1.161
1.161
1.161
1.161
1.161
1.161
1.161
1.161
1.161
1.161
1.161
1.161
1.161
1.161
1.161
1.161
1.161
1.161
1.161
1.161
1.161
1.161
1.161
1.161
1.161
1.161
1.161
1.161
1.161
1.161
1.161
1.161
1.161
1.161
1.161
1.161
1.161
1.161
1.161
1.161
1.161
1.161
1.161
1.161
1.161
1.161
1.161
1.161
1.161
1.161
1.161
1.161
1.161
1.161
1.161
1.161
1.161
1.161
1.161
1.161
1.161
1.161
1.161
1.161
1.161
1.161
1.161
1.161
1.161
1.161
1.161
1.161
1.161
1.161
1.161
1.161
1.161
1.161
1.161
1.161
1.161
1.161
1.161
1.161
1.161
1.161
1.161
1.161
1.161
1.161
1.161
1.161
1.161
1.161
1.161
1.161
1.161
1.161
1.161
1.161
1.161
1.161
1.161
1.161
1.161
1.161
1.161
1.161
1.161
1.161
1.161
1.161
1.161
1.161
1.161
1.161
1.161
1.161
1.161
1.161
1.161
1.161
1.161
1.161
1.161
1.161
1.161
1.161
1.161
1.161
1.161
1.161
1.161
1.161
1.161
1.161
1.161
1.161
1.161
1.161
1.161
1.161
1.161
1.161
1.161
1.161
1.161
1.161
1.161
1.161
1.161
1.161
1.161
1.161
1.161
1.161
1.161
1.161
1.161
1.161
1.161
1.161
1.161
1.161
1.161
1.161
1.161
1.161
1.161
1.161
1.161
1.161
1.161
1.161
1.161
1.161
1.161
1.161
1.161
1.161
1.161
1.161
1.161
1.161
1.161
1.161
1.161
1.161
1.161
1.161
1.161
1.161
1.161
)
;

boundaryField
{
    wedge0
    {
        type            wedge;
    }
    wedge1
    {
        type            wedge;
    }
    wedge2
    {
        type            wedge;
    }
    wedge3
    {
        type            wedge;
    }
    outlet
    {
        type            zeroGradient;
    }
    defaultFaces
    {
        type            empty;
    }
}


// ************************************************************************* //
