/*--------------------------------*- C++ -*----------------------------------*\
| =========                 |                                                 |
| \\      /  F ield         | OpenFOAM: The Open Source CFD Toolbox           |
|  \\    /   O peration     | Version:  2312                                  |
|   \\  /    A nd           | Website:  www.openfoam.com                      |
|    \\/     M anipulation  |                                                 |
\*---------------------------------------------------------------------------*/
FoamFile
{
    version     2.0;
    format      ascii;
    arch        "LSB;label=32;scalar=64";
    class       volScalarField;
    location    "0.00011";
    object      T;
}
// * * * * * * * * * * * * * * * * * * * * * * * * * * * * * * * * * * * * * //

dimensions      [0 0 0 1 0 0 0];

internalField   nonuniform List<scalar> 
500
(
4.5752e+06
4.57492e+06
4.57435e+06
4.57343e+06
4.57208e+06
4.57023e+06
4.56779e+06
4.56467e+06
4.56081e+06
4.55612e+06
4.55051e+06
4.5439e+06
4.53623e+06
4.5274e+06
4.51734e+06
4.50597e+06
4.49322e+06
4.47901e+06
4.46327e+06
4.44594e+06
4.42694e+06
4.40621e+06
4.38368e+06
4.3593e+06
4.333e+06
4.30473e+06
4.27444e+06
4.24208e+06
4.20761e+06
4.17098e+06
4.13216e+06
4.09111e+06
4.04781e+06
4.00224e+06
3.95436e+06
3.90418e+06
3.85169e+06
3.79687e+06
3.73974e+06
3.6803e+06
3.61857e+06
3.55457e+06
3.48833e+06
3.41988e+06
3.34927e+06
3.27654e+06
3.20176e+06
3.12498e+06
3.04628e+06
2.96573e+06
2.88343e+06
2.79947e+06
2.71394e+06
2.62698e+06
2.53869e+06
2.44964e+06
2.36126e+06
2.2746e+06
2.18997e+06
2.10756e+06
2.02738e+06
1.94941e+06
1.87364e+06
1.80005e+06
1.72863e+06
1.65935e+06
1.59218e+06
1.52709e+06
1.46407e+06
1.40308e+06
1.34408e+06
1.28705e+06
1.23194e+06
1.17873e+06
1.12738e+06
1.07785e+06
1.03011e+06
984102
939801
897163
856149
816716
778824
742431
707497
673980
641839
611032
581519
553259
526213
500340
475601
451958
429372
407806
387223
367587
348862
331014
314009
297813
282393
267720
253761
240487
227870
215880
204490
193675
183408
173665
164422
155656
147344
139466
132000
124927
118229
111885
105880
100197
94818.5
89730.1
84916.9
80364.9
76060.7
71991.3
68144.7
64509.2
61073.6
57827.3
54760.3
51863
49126.2
46541.1
44099.6
41793.8
39616.1
37559.6
35617.4
33783.2
32051
30415.1
28870
27410.5
26031.9
24729.4
23498.8
22335.8
21236.7
20197.7
19215.4
18286.7
17408.3
16577.5
15791.5
15047.6
14343.4
13676.8
13045.5
12447.7
11881.4
11344.7
10836
10353.6
9896.01
9462.06
9050.33
8659.56
8288.5
7935.99
7601.01
7282.73
6980.21
6692.53
6418.77
6158.12
5910.03
5673.86
5448.92
5234.46
5029.91
4834.94
4649.08
4471.73
4302.31
4140.55
3986.25
3838.92
3697.99
3563.26
3434.69
3311.82
3194.13
3081.6
2974.19
2871.38
2772.79
2678.69
2588.74
2502.39
2419.83
2341.01
2265.33
2192.88
2123.78
2057.34
1993.82
1933.23
1874.77
1819.39
1765.66
1715.05
1665.62
1619.43
1573.9
1531.8
1489.86
1451.43
1412.93
1377.82
1342.49
1310.42
1277.99
1248.75
1218.99
1192.36
1165.06
1140.91
1115.91
1094.07
1071.22
1051.43
1030.52
1012.57
993.473
977.182
959.83
945.064
929.446
916.126
902.175
890.176
877.747
866.925
855.938
846.205
836.753
828.087
819.915
812.342
805.362
799.15
794.119
790.725
787.161
779.794
763.63
722.742
601.699
364.009
303.784
300.195
300.011
300.001
300
300
300
300
300
300
300
300
300
300
300
300
300
300
300
300
300
300
300
300
300
300
300
300
300
300
300
300
300
300
300
300
300
300
300
300
300
300
300
300
300
300
300
300
300
300
300
300
300
300
300
300
300
300
300
300
300
300
300
300
300
300
300
300
300
300
300
300
300
300
300
300
300
300
300
300
300
300
300
300
300
300
300
300
300
300
300
300
300
300
300
300
300
300
300
300
300
300
300
300
300
300
300
300
300
300
300
300
300
300
300
300
300
300
300
300
300
300
300
300
300
300
300
300
300
300
300
300
300
300
300
300
300
300
300
300
300
300
300
300
300
300
300
300
300
300
300
300
300
300
300
300
300
300
300
300
300
300
300
300
300
300
300
300
300
300
300
300
300
300
300
300
300
300
300
300
300
300
300
300
300
300
300
300
300
300
300
300
300
300
300
300
300
300
300
300
300
300
300
300
300
300
300
300
300
300
300
300
300
300
300
300
300
300
300
300
300
300
300
300
300
300
300
300
300
300
300
300
300
300
300
300
300
300
)
;

boundaryField
{
    wedge0
    {
        type            wedge;
    }
    wedge1
    {
        type            wedge;
    }
    wedge2
    {
        type            wedge;
    }
    wedge3
    {
        type            wedge;
    }
    outlet
    {
        type            zeroGradient;
    }
    defaultFaces
    {
        type            empty;
    }
}


// ************************************************************************* //
