/*--------------------------------*- C++ -*----------------------------------*\
| =========                 |                                                 |
| \\      /  F ield         | OpenFOAM: The Open Source CFD Toolbox           |
|  \\    /   O peration     | Version:  2312                                  |
|   \\  /    A nd           | Website:  www.openfoam.com                      |
|    \\/     M anipulation  |                                                 |
\*---------------------------------------------------------------------------*/
FoamFile
{
    version     2.0;
    format      ascii;
    arch        "LSB;label=32;scalar=64";
    class       volScalarField;
    location    "0.00011";
    object      thermo:e;
}
// * * * * * * * * * * * * * * * * * * * * * * * * * * * * * * * * * * * * * //

dimensions      [0 2 -2 0 0 0 0];

internalField   nonuniform List<scalar> 
500
(
3.28362e+09
3.28342e+09
3.28301e+09
3.28235e+09
3.28138e+09
3.28005e+09
3.2783e+09
3.27607e+09
3.27329e+09
3.26992e+09
3.2659e+09
3.26116e+09
3.25565e+09
3.24931e+09
3.24209e+09
3.23393e+09
3.22478e+09
3.21458e+09
3.20329e+09
3.19085e+09
3.17722e+09
3.16234e+09
3.14617e+09
3.12867e+09
3.10979e+09
3.08951e+09
3.06777e+09
3.04454e+09
3.0198e+09
2.99351e+09
2.96565e+09
2.93619e+09
2.90512e+09
2.87241e+09
2.83805e+09
2.80203e+09
2.76436e+09
2.72501e+09
2.68401e+09
2.64135e+09
2.59705e+09
2.55111e+09
2.50357e+09
2.45445e+09
2.40377e+09
2.35157e+09
2.2979e+09
2.2428e+09
2.18631e+09
2.12851e+09
2.06944e+09
2.00918e+09
1.9478e+09
1.88538e+09
1.82202e+09
1.75811e+09
1.69468e+09
1.63248e+09
1.57174e+09
1.5126e+09
1.45505e+09
1.39909e+09
1.34471e+09
1.2919e+09
1.24064e+09
1.19091e+09
1.1427e+09
1.096e+09
1.05076e+09
1.00699e+09
9.64646e+08
9.23713e+08
8.84166e+08
8.45978e+08
8.09124e+08
7.73576e+08
7.39307e+08
7.0629e+08
6.74495e+08
6.43894e+08
6.14458e+08
5.86157e+08
5.58962e+08
5.32843e+08
5.07771e+08
4.83715e+08
4.60648e+08
4.38537e+08
4.17356e+08
3.97074e+08
3.77663e+08
3.59094e+08
3.41339e+08
3.2437e+08
3.0816e+08
2.92683e+08
2.7791e+08
2.63817e+08
2.50379e+08
2.37569e+08
2.25364e+08
2.1374e+08
2.02674e+08
1.92143e+08
1.82124e+08
1.72598e+08
1.63542e+08
1.54937e+08
1.46763e+08
1.39e+08
1.31632e+08
1.24639e+08
1.18006e+08
1.11714e+08
1.05749e+08
1.00094e+08
9.47364e+07
8.96603e+07
8.48526e+07
8.03001e+07
7.59904e+07
7.19112e+07
6.80512e+07
6.43993e+07
6.09449e+07
5.76779e+07
5.45887e+07
5.16682e+07
4.89075e+07
4.62982e+07
4.38325e+07
4.15027e+07
3.93015e+07
3.72221e+07
3.52578e+07
3.34026e+07
3.16503e+07
2.99954e+07
2.84325e+07
2.69565e+07
2.55626e+07
2.42462e+07
2.3003e+07
2.18289e+07
2.072e+07
1.96725e+07
1.86831e+07
1.77483e+07
1.68651e+07
1.60304e+07
1.52415e+07
1.44959e+07
1.37909e+07
1.31243e+07
1.2494e+07
1.18977e+07
1.13335e+07
1.07997e+07
1.02943e+07
9.81581e+06
9.36277e+06
8.93371e+06
8.52725e+06
8.14208e+06
7.77696e+06
7.43075e+06
7.10237e+06
6.79092e+06
6.49542e+06
6.21497e+06
5.94866e+06
5.69566e+06
5.45524e+06
5.22682e+06
5.0097e+06
4.80323e+06
4.60675e+06
4.41968e+06
4.24163e+06
4.07213e+06
3.91069e+06
3.75677e+06
3.60996e+06
3.47004e+06
3.33664e+06
3.20936e+06
3.08777e+06
2.97168e+06
2.86094e+06
2.75519e+06
2.65404e+06
2.55735e+06
2.46508e+06
2.37689e+06
2.29243e+06
2.21167e+06
2.13457e+06
2.06079e+06
1.99003e+06
1.9225e+06
1.85794e+06
1.79596e+06
1.73671e+06
1.68015e+06
1.62583e+06
1.57383e+06
1.52424e+06
1.47655e+06
1.43097e+06
1.38748e+06
1.34553e+06
1.30577e+06
1.26722e+06
1.23089e+06
1.19541e+06
1.16227e+06
1.12959e+06
1.09937e+06
1.06928e+06
1.04169e+06
1.01406e+06
988864
963503
940490
917214
896225
874867
855760
836166
818829
800891
785211
768812
754609
739601
726719
713016
701324
688870
678273
667064
657504
647491
638879
629959
622192
614307
607321
600537
594318
588453
583018
578009
573550
569939
567503
564945
559658
548057
518712
431839
261250
218026
215450
215318
215310
215310
215310
215310
215310
215310
215310
215310
215310
215310
215310
215310
215310
215310
215310
215310
215310
215310
215310
215310
215310
215310
215310
215310
215310
215310
215310
215310
215310
215310
215310
215310
215310
215310
215310
215310
215310
215310
215310
215310
215310
215310
215310
215310
215310
215310
215310
215310
215310
215310
215310
215310
215310
215310
215310
215310
215310
215310
215310
215310
215310
215310
215310
215310
215310
215310
215310
215310
215310
215310
215310
215310
215310
215310
215310
215310
215310
215310
215310
215310
215310
215310
215310
215310
215310
215310
215310
215310
215310
215310
215310
215310
215310
215310
215310
215310
215310
215310
215310
215310
215310
215310
215310
215310
215310
215310
215310
215310
215310
215310
215310
215310
215310
215310
215310
215310
215310
215310
215310
215310
215310
215310
215310
215310
215310
215310
215310
215310
215310
215310
215310
215310
215310
215310
215310
215310
215310
215310
215310
215310
215310
215310
215310
215310
215310
215310
215310
215310
215310
215310
215310
215310
215310
215310
215310
215310
215310
215310
215310
215310
215310
215310
215310
215310
215310
215310
215310
215310
215310
215310
215310
215310
215310
215310
215310
215310
215310
215310
215310
215310
215310
215310
215310
215310
215310
215310
215310
215310
215310
215310
215310
215310
215310
215310
215310
215310
215310
215310
215310
215310
215310
215310
215310
215310
215310
215310
215310
215310
215310
215310
215310
215310
215310
215310
215310
215310
215310
215310
215310
215310
215310
215310
215310
215310
215310
215310
215310
215310
215310
215310
215310
215310
215310
215310
215310
)
;

boundaryField
{
    wedge0
    {
        type            wedge;
    }
    wedge1
    {
        type            wedge;
    }
    wedge2
    {
        type            wedge;
    }
    wedge3
    {
        type            wedge;
    }
    outlet
    {
        type            zeroGradient;
    }
    defaultFaces
    {
        type            empty;
    }
}


// ************************************************************************* //
