/*--------------------------------*- C++ -*----------------------------------*\
| =========                 |                                                 |
| \\      /  F ield         | OpenFOAM: The Open Source CFD Toolbox           |
|  \\    /   O peration     | Version:  2312                                  |
|   \\  /    A nd           | Website:  www.openfoam.com                      |
|    \\/     M anipulation  |                                                 |
\*---------------------------------------------------------------------------*/
FoamFile
{
    version     2.0;
    format      ascii;
    arch        "LSB;label=32;scalar=64";
    class       volVectorField;
    location    "0.00011";
    object      U;
}
// * * * * * * * * * * * * * * * * * * * * * * * * * * * * * * * * * * * * * //

dimensions      [0 1 -1 0 0 0 0];

internalField   nonuniform List<vector> 
500
(
(1.90637 -1.97519e-08 2.08235e-08)
(3.87664 -2.02035e-08 2.12739e-08)
(6.07706 -2.07921e-08 2.18647e-08)
(8.33303 -2.10412e-08 2.1981e-08)
(10.6097 -2.03136e-08 2.11366e-08)
(12.8972 -2.05567e-08 2.1293e-08)
(15.1924 -2.04701e-08 2.11461e-08)
(17.4937 -2.01482e-08 2.07795e-08)
(19.7998 -1.91058e-08 1.97012e-08)
(22.11 -1.75265e-08 1.80956e-08)
(24.4237 -1.59764e-08 1.65238e-08)
(26.7403 -1.44635e-08 1.49971e-08)
(29.0595 -1.27839e-08 1.33083e-08)
(31.3815 -1.09563e-08 1.14758e-08)
(33.7065 -8.99035e-09 9.50927e-09)
(36.035 -6.88717e-09 7.40987e-09)
(38.3678 -4.71179e-09 5.21042e-09)
(40.7053 -3.36509e-09 3.84942e-09)
(43.0479 -2.10304e-09 2.54868e-09)
(45.396 -1.52152e-09 1.93436e-09)
(47.7502 -1.14814e-09 1.52006e-09)
(50.1111 -9.6575e-10 1.31176e-09)
(52.4793 -1.15551e-09 1.48408e-09)
(54.8554 -1.70842e-09 2.01489e-09)
(57.2399 -1.98068e-09 2.26865e-09)
(59.6336 -1.97752e-09 2.25529e-09)
(62.0371 -2.11922e-09 2.36099e-09)
(64.4513 -2.44115e-09 2.66506e-09)
(66.877 -2.02632e-09 2.22858e-09)
(69.3153 -1.85687e-09 2.03859e-09)
(71.7674 -1.89283e-09 2.08242e-09)
(74.2341 -2.17853e-09 2.34576e-09)
(76.7167 -1.88241e-09 2.02764e-09)
(79.2161 -1.71204e-09 1.80103e-09)
(81.7335 -1.5587e-09 1.61333e-09)
(84.2699 -1.55972e-09 1.55973e-09)
(86.8266 -1.45147e-09 1.45147e-09)
(89.405 -1.44476e-09 1.44476e-09)
(92.0064 -1.53428e-09 1.53428e-09)
(94.6327 -1.82872e-09 1.82872e-09)
(97.2854 -1.81733e-09 1.81733e-09)
(99.9665 -1.49754e-09 1.49754e-09)
(102.678 -1.23689e-09 1.23689e-09)
(105.421 -1.08994e-09 1.08994e-09)
(108.198 -1.03061e-09 1.03061e-09)
(111.011 -1.11048e-09 1.11048e-09)
(113.861 -1.03661e-09 1.03661e-09)
(116.753 -1.02083e-09 1.02083e-09)
(119.688 -8.51106e-10 8.51106e-10)
(122.669 -8.3083e-10 8.3083e-10)
(125.701 -8.18348e-10 8.18348e-10)
(128.786 -8.03691e-10 8.03691e-10)
(131.923 -7.51644e-10 7.51644e-10)
(134.974 -7.28358e-10 7.28358e-10)
(137.603 -7.20167e-10 7.20167e-10)
(138.236 -7.1101e-10 7.1101e-10)
(137.295 -7.05211e-10 7.05211e-10)
(137.384 -6.91404e-10 6.91404e-10)
(139.001 -6.7452e-10 6.7452e-10)
(141 -5.94525e-10 5.94525e-10)
(143.11 -4.97291e-10 4.97291e-10)
(145.242 -3.37798e-10 3.37798e-10)
(147.402 -1.99329e-10 1.99329e-10)
(149.561 -7.7051e-11 7.7051e-11)
(151.727 0 6.25572e-31)
(153.888 2.35238e-11 -2.35238e-11)
(156.052 -1.50836e-11 1.50836e-11)
(158.212 2.09708e-10 -2.09708e-10)
(160.374 1.29482e-10 -1.29482e-10)
(162.536 8.61488e-11 -8.61488e-11)
(164.696 4.37175e-11 -4.37175e-11)
(166.86 1.13269e-11 -1.13269e-11)
(169.022 1.34347e-12 -1.34347e-12)
(171.188 1.08007e-11 -1.08007e-11)
(173.353 -2.00195e-11 2.00195e-11)
(175.523 8.37186e-11 -8.37186e-11)
(177.692 5.58832e-11 -5.58832e-11)
(179.866 2.77143e-11 -2.77143e-11)
(182.041 1.01995e-11 -1.01995e-11)
(184.221 1.22024e-12 -1.22218e-12)
(186.402 9.92514e-12 -9.92078e-12)
(188.59 -1.59924e-11 1.59884e-11)
(190.779 4.03684e-11 -4.037e-11)
(192.976 3.94104e-11 -3.94101e-11)
(195.175 4.59399e-11 -4.59398e-11)
(197.381 -9.05619e-12 9.11017e-12)
(199.591 9.27835e-12 -9.27783e-12)
(201.807 -3.49321e-11 3.49331e-11)
(204.03 -2.2049e-11 2.20486e-11)
(206.256 -1.12512e-12 1.12765e-12)
(208.49 -3.19204e-11 3.1919e-11)
(210.727 -3.80374e-11 3.80388e-11)
(212.973 -1.24903e-11 1.89275e-11)
(215.221 -4.14346e-11 5.06246e-11)
(217.477 -3.03799e-11 3.47294e-11)
(219.734 -1.83308e-11 2.42287e-11)
(222 -1.95438e-11 2.31257e-11)
(224.267 -6.03694e-12 6.03771e-12)
(226.54 -2.12111e-11 2.1211e-11)
(228.815 2.27694e-12 -5.01499e-12)
(231.093 -5.82235e-12 5.82176e-12)
(233.373 1.11663e-11 -1.11654e-11)
(235.652 -5.8647e-12 5.86446e-12)
(237.931 9.35328e-12 -9.33407e-12)
(240.206 -5.6969e-12 5.65617e-12)
(242.479 2.16906e-11 -2.20249e-11)
(244.746 -7.11041e-13 1.73738e-12)
(247.008 1.39313e-11 -1.65433e-11)
(249.262 5.79496e-12 -4.62662e-12)
(251.511 5.97496e-12 -5.47499e-12)
(253.752 -5.24296e-12 6.16545e-12)
(255.987 1.88772e-11 -1.51805e-11)
(258.217 1.53558e-11 -1.39842e-11)
(260.444 7.54301e-12 -7.54294e-12)
(262.671 1.20386e-11 -1.16591e-11)
(264.9 2.62721e-11 -2.69073e-11)
(267.135 2.52021e-11 -2.59453e-11)
(269.377 1.57513e-11 -1.57523e-11)
(271.628 1.88968e-11 -2.14273e-11)
(273.892 1.5473e-11 -1.46486e-11)
(276.166 6.21054e-12 -8.95561e-12)
(278.453 1.45051e-11 -1.45313e-11)
(280.75 1.42292e-11 -1.33685e-11)
(283.06 1.10429e-11 -9.81964e-12)
(285.374 1.11261e-11 -8.0324e-12)
(287.697 5.46228e-12 -7.93479e-12)
(290.017 7.46369e-12 -7.01294e-12)
(292.337 7.17256e-12 -9.76987e-12)
(294.644 7.67633e-12 -7.6764e-12)
(296.943 5.42552e-12 -7.08529e-12)
(299.223 6.36495e-12 -6.64905e-12)
(301.492 6.47776e-12 -4.36485e-12)
(303.748 6.40514e-12 -3.62598e-12)
(306.005 3.43974e-12 -3.85094e-12)
(308.263 4.97122e-12 -6.92755e-12)
(310.534 1.86084e-12 -1.50967e-12)
(312.822 3.60252e-12 -1.67057e-12)
(315.127 2.71394e-12 -1.85701e-12)
(317.453 1.85535e-12 -7.62733e-13)
(319.795 3.03216e-12 -3.18525e-12)
(322.145 5.74481e-13 -4.46602e-13)
(324.496 2.86103e-12 -2.29805e-12)
(326.833 3.22781e-13 -2.67686e-13)
(329.15 8.96742e-13 -1.4247e-12)
(331.448 3.7602e-13 -1.17595e-12)
(333.735 4.64011e-13 -1.08258e-12)
(336.023 3.66923e-13 7.56019e-13)
(338.321 -4.76655e-14 1.82999e-13)
(340.642 -2.08964e-13 6.49762e-13)
(342.989 2.0085e-13 1.35575e-14)
(345.361 6.77461e-13 -1.24316e-12)
(347.742 -1.95007e-13 -2.17713e-13)
(350.115 -1.91395e-13 2.58058e-13)
(352.461 -1.96983e-13 -7.16012e-13)
(354.786 1.25621e-12 -1.51855e-13)
(357.102 -1.55786e-12 3.6582e-13)
(359.432 1.17548e-12 -5.25123e-13)
(361.782 -1.50272e-12 1.20817e-12)
(364.167 1.16601e-13 -1.69517e-13)
(366.576 -7.50789e-13 5.66139e-13)
(368.98 9.57376e-14 1.19263e-13)
(371.358 -1.00723e-12 9.46046e-13)
(373.718 1.86097e-13 -1.88494e-13)
(376.075 -6.99354e-13 8.70928e-13)
(378.455 -8.9169e-13 4.77879e-13)
(380.869 -6.26027e-13 2.02729e-13)
(383.317 -1.27441e-12 2.69558e-13)
(385.751 -7.40159e-13 -1.25844e-13)
(388.16 -2.81593e-13 -2.81474e-15)
(390.559 -2.54591e-13 1.00923e-13)
(392.974 -1.52372e-13 4.90733e-14)
(395.431 -5.84693e-13 1.72548e-13)
(397.924 -9.16762e-13 5.74172e-13)
(400.401 -3.84557e-13 3.34143e-13)
(402.846 -7.3009e-13 6.26766e-13)
(405.296 -7.45885e-13 7.45675e-13)
(407.782 -8.40666e-13 8.40224e-13)
(410.326 -6.8383e-13 6.7279e-13)
(412.867 -8.18601e-13 8.15722e-13)
(415.363 -6.41017e-13 6.4806e-13)
(417.862 -6.02612e-13 6.072e-13)
(420.41 -4.4346e-13 4.40757e-13)
(423.026 -4.56987e-13 4.47061e-13)
(425.621 -2.87552e-13 2.83746e-13)
(428.166 -3.19652e-13 3.10895e-13)
(430.736 -1.56409e-13 1.52858e-13)
(433.396 -2.16374e-13 2.16275e-13)
(436.091 -1.46152e-13 1.46151e-13)
(438.703 -1.3175e-13 1.32232e-13)
(441.327 -1.95294e-13 1.95476e-13)
(444.049 -1.08164e-13 1.08682e-13)
(446.833 -1.15487e-13 1.15483e-13)
(449.515 -6.84471e-14 6.79567e-14)
(452.214 -1.37321e-13 1.35878e-13)
(455.043 -1.04428e-13 1.04432e-13)
(457.908 -2.30729e-14 2.29107e-14)
(460.645 -7.48946e-14 7.61431e-14)
(463.46 -6.3084e-14 6.27892e-14)
(466.444 -4.97465e-14 4.96258e-14)
(469.33 -5.29218e-14 5.1613e-14)
(472.17 -2.83463e-15 3.53871e-15)
(475.2 -1.62625e-14 1.55e-14)
(478.248 3.25872e-14 -3.20358e-14)
(481.148 1.14539e-14 -1.25159e-14)
(484.252 6.53403e-14 -6.58548e-14)
(487.43 -3.90336e-14 3.78178e-14)
(490.416 4.32727e-14 -4.36345e-14)
(493.646 6.02303e-16 6.95645e-16)
(496.881 2.11466e-14 -2.18242e-14)
(500.02 2.68342e-14 -2.54426e-14)
(503.483 -4.62551e-15 4.62551e-15)
(506.634 1.05942e-14 -1.05942e-14)
(510.223 1.52328e-14 -1.52328e-14)
(513.42 -1.08493e-14 1.08493e-14)
(517.165 1.63569e-14 -1.63569e-14)
(520.397 -2.89094e-14 2.89094e-14)
(524.322 -3.29101e-14 3.29101e-14)
(527.577 -3.83792e-14 3.83792e-14)
(531.676 -2.1077e-14 2.1077e-14)
(534.959 -4.2188e-14 4.2188e-14)
(539.206 -2.35587e-14 2.35587e-14)
(542.551 -5.13822e-14 5.13822e-14)
(546.952 -2.06293e-14 2.06293e-14)
(550.369 -5.96447e-14 5.96447e-14)
(554.942 -1.06981e-14 1.06981e-14)
(558.43 -3.28265e-14 3.28265e-14)
(563.192 -1.36856e-15 1.36856e-15)
(566.743 -3.95892e-14 3.95892e-14)
(571.718 -4.7672e-14 4.7672e-14)
(575.324 -3.3692e-14 3.3692e-14)
(580.563 -7.35499e-14 7.35499e-14)
(584.212 -5.11545e-14 5.11545e-14)
(589.688 -5.64229e-14 5.64229e-14)
(593.358 -3.78144e-14 3.78144e-14)
(598.984 -3.9935e-14 3.9935e-14)
(602.712 -2.11887e-14 2.11887e-14)
(608.392 -3.7323e-14 3.7323e-14)
(612.25 -1.06056e-14 1.06056e-14)
(617.903 -3.16999e-14 3.16999e-14)
(621.997 7.78371e-15 -7.78371e-15)
(627.637 -3.54963e-14 3.54963e-14)
(632.058 -7.12682e-15 7.12682e-15)
(637.729 -4.34953e-14 4.34953e-14)
(642.421 -1.62368e-14 1.62368e-14)
(648.067 -2.80723e-14 2.80723e-14)
(652.987 5.47076e-15 -5.47076e-15)
(658.561 6.83407e-15 -6.83407e-15)
(663.79 -2.04342e-14 2.04342e-14)
(669.368 1.37039e-14 -1.37039e-14)
(674.931 -4.41061e-15 4.41061e-15)
(680.624 -6.00976e-15 6.00976e-15)
(686.377 -3.1016e-15 3.1016e-15)
(692.245 5.13325e-16 -5.13325e-16)
(698.378 0 5.33604e-35)
(705.381 0 -3.57004e-35)
(714.98 -9.28181e-16 9.28181e-16)
(721.975 -1.37191e-15 1.37191e-15)
(720.611 -8.37433e-15 8.37433e-15)
(706.607 -1.0328e-14 1.0328e-14)
(649.444 -9.88312e-15 9.88312e-15)
(446.333 -5.43025e-15 5.43025e-15)
(99.6153 -2.78613e-16 2.78613e-16)
(8.29964 3.84046e-15 -3.84046e-15)
(0.517116 1.05965e-14 -1.05965e-14)
(0.031515 2.35189e-14 -2.35189e-14)
(0.00191395 2.28696e-14 -2.28696e-14)
(0.00011584 2.33134e-14 -2.33134e-14)
(6.98456e-06 1.66227e-14 -1.66227e-14)
(4.19485e-07 1.10425e-14 -1.10425e-14)
(2.50935e-08 6.18595e-15 -6.18595e-15)
(1.49234e-09 2.24757e-15 -2.24757e-15)
(1.16217e-10 0 0)
(1.16582e-12 -1.89124e-17 1.89124e-17)
(-2.05698e-11 -3.06084e-15 3.06084e-15)
(-7.27167e-12 -9.09109e-15 9.09109e-15)
(-1.23924e-11 -1.93293e-14 1.93293e-14)
(2.26244e-11 -8.57402e-15 8.57402e-15)
(3.94549e-11 -2.92675e-15 2.92675e-15)
(4.7359e-11 0 0)
(3.75827e-11 7.53668e-16 -7.53668e-16)
(-1.74336e-12 4.89122e-15 -4.89122e-15)
(-2.14509e-11 8.43416e-15 -8.43416e-15)
(-1.52866e-11 1.23667e-14 -1.23667e-14)
(1.98737e-12 1.87285e-15 -1.87285e-15)
(-1.95609e-11 -7.94584e-15 7.94584e-15)
(2.22544e-11 -7.29802e-15 7.29802e-15)
(5.12223e-11 -5.64569e-15 5.64569e-15)
(2.3137e-11 -5.68557e-15 5.68557e-15)
(-3.6013e-11 -9.22614e-15 9.22614e-15)
(-8.81835e-11 -2.56393e-15 2.56393e-15)
(-1.13339e-10 0 0)
(-8.07629e-11 -6.95139e-19 6.95139e-19)
(-4.1724e-11 -1.19754e-14 1.19754e-14)
(3.43365e-11 -1.05313e-15 1.05313e-15)
(2.33545e-11 1.22327e-15 -1.22327e-15)
(2.18472e-11 4.58556e-15 -4.58556e-15)
(4.36342e-11 -2.39892e-15 2.39892e-15)
(7.01644e-11 -2.23913e-16 2.23913e-16)
(4.57683e-11 0 0)
(2.84226e-11 -3.52363e-15 3.52363e-15)
(6.27031e-13 -7.13907e-15 7.13907e-15)
(-3.5301e-11 -3.94678e-15 3.94678e-15)
(-2.0545e-11 -6.29186e-15 6.29186e-15)
(-5.39661e-12 0 0)
(1.73297e-11 3.40781e-15 -3.40781e-15)
(4.74488e-11 0 0)
(3.05862e-11 0 0)
(1.55794e-11 -4.00242e-15 4.00242e-15)
(5.3599e-12 -1.43892e-14 1.43892e-14)
(3.30982e-13 -1.38424e-14 1.38424e-14)
(6.64053e-11 -3.88066e-15 3.88066e-15)
(1.09973e-10 0 0)
(6.57229e-11 0 0)
(-2.79337e-11 0 0)
(-9.28659e-11 4.45999e-15 -4.45999e-15)
(-1.1294e-10 1.88186e-15 -1.88186e-15)
(-7.91243e-11 -2.20032e-16 2.20032e-16)
(-7.2937e-11 -1.31084e-14 1.31084e-14)
(-7.34905e-11 -4.67986e-14 4.67986e-14)
(-4.27479e-11 -5.66797e-14 5.66797e-14)
(-4.52251e-11 -6.90092e-14 6.90092e-14)
(-9.05096e-11 -7.3941e-14 7.3941e-14)
(1.04565e-10 -4.57232e-14 4.57232e-14)
(1.24245e-10 -5.19562e-14 5.19562e-14)
(1.00957e-10 -5.20166e-14 5.20166e-14)
(-8.79066e-11 -1.75497e-14 1.75497e-14)
(-5.15703e-11 -1.08713e-14 1.08713e-14)
(-3.05667e-11 -1.82853e-15 1.82853e-15)
(-2.68192e-11 5.21559e-15 -5.21559e-15)
(2.29315e-12 2.95537e-16 -2.95537e-16)
(1.71756e-11 0 0)
(-2.2927e-11 -3.52704e-16 3.52704e-16)
(1.907e-12 -4.62886e-15 4.62886e-15)
(3.10125e-11 -9.25697e-15 9.25697e-15)
(2.36358e-11 -9.77031e-15 9.77031e-15)
(3.04542e-11 -2.94274e-15 2.94274e-15)
(3.52885e-11 0 0)
(4.12804e-11 0 0)
(5.31842e-11 0 0)
(3.88802e-11 0 0)
(-4.85308e-12 -9.92158e-18 9.92158e-18)
(-1.80136e-11 -4.19518e-15 4.19518e-15)
(-2.47289e-11 0 0)
(-2.57805e-11 5.6143e-16 -5.6143e-16)
(-5.42404e-12 3.67816e-15 -3.67816e-15)
(1.5981e-11 2.27762e-15 -2.27762e-15)
(2.67198e-11 2.82634e-15 -2.82634e-15)
(2.29893e-11 -3.86626e-15 3.86626e-15)
(-1.66111e-11 -1.24532e-14 1.24532e-14)
(-3.2179e-11 -1.42399e-14 1.42399e-14)
(-2.13358e-11 -1.57479e-14 1.57479e-14)
(-2.27759e-11 -1.35779e-14 1.35779e-14)
(-1.67082e-11 -6.51063e-15 6.51063e-15)
(1.39084e-11 0 0)
(7.37133e-13 8.95263e-16 -8.95263e-16)
(-4.28071e-14 6.21912e-16 -6.21912e-16)
(-1.6118e-11 -6.7915e-15 6.7915e-15)
(-2.67292e-11 -1.6399e-14 1.6399e-14)
(-2.58428e-12 -1.96949e-14 1.96949e-14)
(2.78618e-11 -1.94652e-14 1.94652e-14)
(2.72605e-11 -1.70176e-14 1.70176e-14)
(1.32364e-11 -1.17621e-14 1.17621e-14)
(3.10208e-11 -8.66935e-15 8.66935e-15)
(3.79083e-11 -8.13698e-15 8.13698e-15)
(1.2228e-11 -4.45963e-15 4.45963e-15)
(1.92335e-11 -4.19628e-15 4.19628e-15)
(9.86996e-12 -5.59123e-16 5.59123e-16)
(-3.01402e-11 2.77182e-15 -2.77182e-15)
(-3.82901e-11 0 0)
(-3.50347e-11 0 0)
(-1.85244e-11 -3.87964e-15 3.87964e-15)
(-1.26416e-11 -1.63144e-14 1.63144e-14)
(-2.40862e-11 -1.92371e-14 1.92371e-14)
(-6.96341e-12 -2.34494e-14 2.34494e-14)
(5.5087e-12 -2.52274e-14 2.52274e-14)
(-1.73281e-11 -2.25072e-14 2.25072e-14)
(1.94454e-11 -7.42124e-15 7.42124e-15)
(3.30105e-11 -2.79693e-15 2.79693e-15)
(1.82636e-11 0 0)
(-4.53026e-11 3.80691e-15 -3.80691e-15)
(-6.1416e-11 1.33235e-15 -1.33235e-15)
(-4.67956e-11 3.43788e-15 -3.43788e-15)
(-8.22328e-12 1.68418e-16 -1.68418e-16)
(3.04413e-11 0 0)
(-2.73411e-11 -4.65629e-15 4.65629e-15)
(-2.50147e-11 0 0)
(-6.05601e-12 0 0)
(1.43592e-11 1.28673e-15 -1.28673e-15)
(7.25791e-11 7.61639e-15 -7.61639e-15)
(9.96782e-11 8.19825e-15 -8.19825e-15)
(7.08175e-11 4.15892e-15 -4.15892e-15)
(4.13493e-11 1.55137e-16 -1.55137e-16)
(3.66425e-11 0 0)
(-3.06853e-11 4.44588e-15 -4.44588e-15)
(-1.15493e-11 7.47695e-16 -7.47695e-16)
(-1.48277e-11 0 0)
(-4.49739e-11 0 0)
(-2.85851e-11 0 0)
(3.73203e-11 0 0)
(5.22161e-11 0 0)
(-7.42039e-11 0 0)
(-8.94024e-11 3.08153e-15 -3.08153e-15)
(9.14345e-11 1.21897e-14 -1.21897e-14)
(1.32179e-10 2.03212e-14 -2.03212e-14)
(8.40641e-11 2.92301e-14 -2.92301e-14)
(2.99188e-11 3.71195e-14 -3.71195e-14)
(1.35074e-11 3.68431e-14 -3.68431e-14)
(-3.48987e-11 2.01803e-14 -2.01803e-14)
(-7.23874e-11 9.06166e-15 -9.06166e-15)
(-9.0342e-11 1.64204e-15 -1.64204e-15)
(-9.11667e-11 0 0)
(-8.26433e-11 0 0)
(-5.05047e-11 0 0)
(-7.62191e-12 0 0)
(-2.86782e-11 0 0)
(-1.7445e-11 0 0)
(3.08232e-11 0 0)
(3.14456e-11 -1.29453e-16 1.29453e-16)
(-6.41876e-13 -1.21108e-15 1.21108e-15)
(-1.66483e-11 1.78794e-15 -1.78794e-15)
(-2.49467e-11 0 0)
(-2.05955e-11 -3.36165e-15 3.36165e-15)
(-2.65424e-12 -7.2062e-15 7.2062e-15)
(2.86466e-11 -7.98697e-15 7.98697e-15)
(4.74967e-11 -1.32092e-14 1.32092e-14)
(-5.2673e-11 -1.277e-14 1.277e-14)
(-6.54441e-11 -1.7882e-14 1.7882e-14)
(7.33943e-11 -4.42672e-15 4.42672e-15)
(9.48633e-11 -3.90305e-15 3.90305e-15)
(6.33789e-11 3.25498e-16 -3.25498e-16)
(2.96816e-11 1.3425e-15 -1.3425e-15)
(2.11901e-11 3.3206e-15 -3.3206e-15)
(2.273e-11 1.88313e-15 -1.88313e-15)
(5.28267e-12 2.87763e-15 -2.87763e-15)
(-2.35708e-11 8.49637e-16 -8.49637e-16)
(2.96162e-11 7.47077e-16 -7.47077e-16)
(4.47158e-11 -2.07703e-15 2.07703e-15)
(4.2848e-11 -2.07253e-15 2.07253e-15)
(2.09981e-11 -4.02665e-15 4.02665e-15)
(-1.54694e-11 -1.00276e-14 1.00276e-14)
(-1.95544e-11 -1.53517e-14 1.53517e-14)
(1.13339e-12 -1.38073e-14 1.38073e-14)
(-5.68257e-11 -2.98791e-15 2.98791e-15)
(-6.80265e-11 1.5427e-14 -1.5427e-14)
(-5.62028e-11 1.77209e-14 -1.77209e-14)
(-1.07126e-10 1.31556e-14 -1.31556e-14)
(-9.17662e-11 1.00953e-14 -1.00953e-14)
(8.27479e-11 7.16585e-15 -7.16585e-15)
(5.65768e-11 9.02789e-15 -9.02789e-15)
(-4.71833e-11 1.4278e-14 -1.4278e-14)
(-2.14409e-11 9.05241e-15 -9.05241e-15)
(1.54135e-11 -1.98177e-15 1.98177e-15)
(7.45287e-12 -8.12157e-15 8.12157e-15)
(1.12458e-11 -7.16475e-15 7.16475e-15)
(9.79959e-13 -7.99622e-15 7.99622e-15)
(-3.626e-12 -1.33152e-14 1.33152e-14)
(2.46789e-11 -1.81881e-14 1.81881e-14)
(2.14096e-11 -2.31748e-14 2.31748e-14)
(2.38766e-11 -3.02621e-14 3.02621e-14)
(-2.23608e-12 -3.47038e-14 3.47038e-14)
(-1.70111e-11 -3.5722e-14 3.5722e-14)
(-9.67936e-12 -3.16378e-14 3.16378e-14)
(6.76588e-12 -2.02764e-14 2.02764e-14)
(2.68126e-11 -1.41191e-14 1.41191e-14)
(1.79038e-11 -8.60344e-15 8.60344e-15)
(1.02967e-11 -2.63831e-15 2.63831e-15)
(1.65956e-11 -3.70679e-16 3.70679e-16)
(1.61273e-11 0 0)
(-1.56091e-11 0 0)
(-4.39012e-11 0 0)
(-2.17693e-11 0 0)
(4.46566e-11 1.54762e-15 -1.54762e-15)
(3.28143e-11 3.31905e-15 -3.31905e-15)
(2.42984e-11 -6.20455e-15 6.20455e-15)
(3.49892e-11 -1.28488e-14 1.28488e-14)
(3.11419e-11 -1.40609e-14 1.40609e-14)
(5.81619e-12 -1.70694e-14 1.70694e-14)
(-2.73373e-11 -1.44685e-14 1.44685e-14)
(-3.25386e-11 6.61383e-15 -6.61383e-15)
(-5.36454e-11 8.96172e-15 -8.96172e-15)
(-5.61392e-11 1.67635e-15 -1.67635e-15)
(-1.58297e-11 0 0)
(7.02914e-11 0 0)
(1.09289e-10 -8.5498e-16 8.5498e-16)
(5.17126e-11 -3.2106e-15 3.2106e-15)
(-5.22383e-11 -9.13394e-15 9.13394e-15)
(-5.64009e-11 -5.67652e-15 5.67652e-15)
(-3.37492e-11 -9.86498e-15 9.86498e-15)
(-1.10821e-11 -1.99231e-14 1.99231e-14)
(-2.1477e-11 -2.77477e-14 2.77477e-14)
(-3.91593e-11 -2.82993e-14 2.82993e-14)
(-3.67438e-11 -2.54715e-14 2.54715e-14)
(-2.10984e-11 -2.0145e-14 2.0145e-14)
(-3.44694e-11 -1.45778e-14 1.45778e-14)
(-6.83965e-12 -1.08855e-14 1.08855e-14)
(2.21272e-11 -9.05291e-15 9.05291e-15)
(2.09383e-11 -9.06516e-15 9.06516e-15)
(7.38555e-11 -1.22704e-14 1.22704e-14)
(9.85843e-11 -5.00785e-15 5.00785e-15)
(9.49994e-11 -3.19252e-15 3.19252e-15)
)
;

boundaryField
{
    wedge0
    {
        type            wedge;
    }
    wedge1
    {
        type            wedge;
    }
    wedge2
    {
        type            wedge;
    }
    wedge3
    {
        type            wedge;
    }
    outlet
    {
        type            zeroGradient;
    }
    defaultFaces
    {
        type            empty;
    }
}


// ************************************************************************* //
