/*--------------------------------*- C++ -*----------------------------------*\
| =========                 |                                                 |
| \\      /  F ield         | OpenFOAM: The Open Source CFD Toolbox           |
|  \\    /   O peration     | Version:  2312                                  |
|   \\  /    A nd           | Website:  www.openfoam.com                      |
|    \\/     M anipulation  |                                                 |
\*---------------------------------------------------------------------------*/
FoamFile
{
    version     2.0;
    format      ascii;
    arch        "LSB;label=32;scalar=64";
    class       volScalarField;
    location    "0.003";
    object      p;
}
// * * * * * * * * * * * * * * * * * * * * * * * * * * * * * * * * * * * * * //

dimensions      [1 -1 -2 0 0 0 0];

internalField   nonuniform List<scalar> 
100
(
413711
413711
413711
413711
413711
413711
413710
413709
413706
413699
413684
413654
413595
413485
413285
412941
412372
411473
410114
408147
405418
401788
397143
391414
384583
376680
367782
357999
347461
336311
324689
312732
300564
288298
276032
263851
251828
240025
228496
217285
206433
195975
185948
176383
167319
158797
150867
143586
137025
131262
126374
122417
119403
117271
115886
115062
114617
114396
114298
114263
114261
114275
114298
114327
114358
114391
114425
114460
114495
114531
114568
114606
114646
114687
114731
114777
114826
114878
114932
114982
114993
114811
113915
110993
103838
90772.1
73581.4
57883.9
48088.6
43704
42121.2
41604.7
41442.8
41392.9
41377.7
41373.1
41371.7
41371.3
41371.2
41371.2
)
;

boundaryField
{
    sides
    {
        type            zeroGradient;
    }
    empty
    {
        type            empty;
    }
}


// ************************************************************************* //
