/*--------------------------------*- C++ -*----------------------------------*\
| =========                 |                                                 |
| \\      /  F ield         | OpenFOAM: The Open Source CFD Toolbox           |
|  \\    /   O peration     | Version:  2312                                  |
|   \\  /    A nd           | Website:  www.openfoam.com                      |
|    \\/     M anipulation  |                                                 |
\*---------------------------------------------------------------------------*/
FoamFile
{
    version     2.0;
    format      ascii;
    arch        "LSB;label=32;scalar=64";
    class       volScalarField;
    location    "0.003";
    object      rho;
}
// * * * * * * * * * * * * * * * * * * * * * * * * * * * * * * * * * * * * * //

dimensions      [1 -3 0 0 0 0 0];

internalField   nonuniform List<scalar> 
100
(
1.16102
1.16102
1.16102
1.16102
1.16102
1.16102
1.16102
1.16102
1.16101
1.161
1.16098
1.16093
1.16083
1.16064
1.16031
1.15974
1.1588
1.1573
1.15503
1.15175
1.14718
1.14107
1.13321
1.12346
1.11174
1.09807
1.08251
1.06521
1.04634
1.02609
1.00467
0.982294
0.959139
0.935389
0.911206
0.886735
0.86211
0.837449
0.81286
0.788446
0.764302
0.740525
0.717215
0.694477
0.672436
0.651231
0.631034
0.612049
0.594518
0.578709
0.564886
0.553245
0.543822
0.536394
0.530436
0.52516
0.51962
0.512803
0.503719
0.491503
0.475573
0.455785
0.432532
0.406708
0.379546
0.352379
0.326423
0.302624
0.281596
0.263636
0.248772
0.23684
0.227548
0.220536
0.215416
0.211809
0.209366
0.207783
0.206811
0.206247
0.20591
0.205533
0.204495
0.201357
0.193668
0.17928
0.159397
0.139799
0.126377
0.119832
0.117328
0.116488
0.116221
0.116138
0.116113
0.116105
0.116103
0.116102
0.116102
0.116102
)
;

boundaryField
{
    sides
    {
        type            zeroGradient;
    }
    empty
    {
        type            empty;
    }
}


// ************************************************************************* //
