/*--------------------------------*- C++ -*----------------------------------*\
| =========                 |                                                 |
| \\      /  F ield         | OpenFOAM: The Open Source CFD Toolbox           |
|  \\    /   O peration     | Version:  2312                                  |
|   \\  /    A nd           | Website:  www.openfoam.com                      |
|    \\/     M anipulation  |                                                 |
\*---------------------------------------------------------------------------*/
FoamFile
{
    version     2.0;
    format      ascii;
    arch        "LSB;label=32;scalar=64";
    class       volScalarField;
    location    "0.003";
    object      T;
}
// * * * * * * * * * * * * * * * * * * * * * * * * * * * * * * * * * * * * * //

dimensions      [0 0 0 1 0 0 0];

internalField   nonuniform List<scalar> 
100
(
300
300
300
300
300
300
300
299.999
299.998
299.996
299.992
299.983
299.966
299.933
299.874
299.772
299.603
299.336
298.933
298.347
297.534
296.448
295.052
293.32
291.238
288.807
286.037
282.951
279.575
275.943
272.085
268.036
263.827
259.485
255.039
250.512
245.926
241.303
236.66
232.018
227.393
222.805
218.275
213.827
209.488
205.292
201.282
197.51
194.044
190.96
188.347
186.289
184.851
184.065
183.933
184.461
185.706
187.812
191.035
195.724
202.275
211.084
222.477
236.662
253.669
273.304
295.124
318.43
342.313
365.749
387.727
407.396
424.177
437.823
448.4
456.221
461.742
465.468
467.875
469.359
470.175
470.292
468.986
464.078
451.4
426.27
388.644
348.591
320.36
307.053
302.246
300.695
300.213
300.065
300.019
300.006
300.002
300
300
300
)
;

boundaryField
{
    sides
    {
        type            zeroGradient;
    }
    empty
    {
        type            empty;
    }
}


// ************************************************************************* //
