/*--------------------------------*- C++ -*----------------------------------*\
| =========                 |                                                 |
| \\      /  F ield         | OpenFOAM: The Open Source CFD Toolbox           |
|  \\    /   O peration     | Version:  2312                                  |
|   \\  /    A nd           | Website:  www.openfoam.com                      |
|    \\/     M anipulation  |                                                 |
\*---------------------------------------------------------------------------*/
FoamFile
{
    version     2.0;
    format      ascii;
    arch        "LSB;label=32;scalar=64";
    class       volScalarField;
    location    "0.003";
    object      thermo:e;
}
// * * * * * * * * * * * * * * * * * * * * * * * * * * * * * * * * * * * * * //

dimensions      [0 2 -2 0 0 0 0];

internalField   nonuniform List<scalar> 
100
(
515400
515400
515400
515400
515400
515400
515400
515399
515397
515394
515386
515371
515341
515285
515183
515008
514718
514260
513566
512561
511163
509298
506900
503924
500348
496170
491412
486109
480310
474069
467443
460487
453254
445796
438157
430380
422502
414558
406583
398606
390661
382779
374997
367355
359900
352691
345802
339323
333367
328070
323581
320045
317574
316224
315997
316904
319042
322661
328199
336253
347509
362642
382216
406585
435802
469537
507023
547063
588094
628357
666115
699906
728736
752179
770351
783787
793272
799674
803810
806358
807760
807962
805718
797285
775505
732332
667691
598880
550379
527517
519259
516595
515766
515511
515433
515410
515403
515401
515400
515400
)
;

boundaryField
{
    sides
    {
        type            zeroGradient;
    }
    empty
    {
        type            empty;
    }
}


// ************************************************************************* //
