/*--------------------------------*- C++ -*----------------------------------*\
| =========                 |                                                 |
| \\      /  F ield         | OpenFOAM: The Open Source CFD Toolbox           |
|  \\    /   O peration     | Version:  2312                                  |
|   \\  /    A nd           | Website:  www.openfoam.com                      |
|    \\/     M anipulation  |                                                 |
\*---------------------------------------------------------------------------*/
FoamFile
{
    version     2.0;
    format      ascii;
    arch        "LSB;label=32;scalar=64";
    class       volVectorField;
    location    "0.003";
    object      U;
}
// * * * * * * * * * * * * * * * * * * * * * * * * * * * * * * * * * * * * * //

dimensions      [0 1 -1 0 0 0 0];

internalField   nonuniform List<vector> 
100
(
(2.20005e-06 0 0)
(6.71095e-06 0 0)
(1.97522e-05 0 0)
(5.60856e-05 0 0)
(0.000153607 0 0)
(0.000405694 0 0)
(0.00103303 0 0)
(0.00253539 0 0)
(0.00599612 0 0)
(0.0136602 0 0)
(0.0299687 0 0)
(0.0632936 0 0)
(0.128644 0 0)
(0.251548 0 0)
(0.473089 0 0)
(0.855626 0 0)
(1.48811 0 0)
(2.48933 0 0)
(4.00709 0 0)
(6.21188 0 0)
(9.28488 0 0)
(13.4018 0 0)
(18.7156 0 0)
(25.3423 0 0)
(33.3522 0 0)
(42.7673 0 0)
(53.5657 0 0)
(65.6898 0 0)
(79.0559 0 0)
(93.5644 0 0)
(109.108 0 0)
(125.579 0 0)
(142.872 0 0)
(160.887 0 0)
(179.532 0 0)
(198.722 0 0)
(218.377 0 0)
(238.422 0 0)
(258.785 0 0)
(279.393 0 0)
(300.172 0 0)
(321.04 0 0)
(341.903 0 0)
(362.651 0 0)
(383.147 0 0)
(403.219 0 0)
(422.649 0 0)
(441.158 0 0)
(458.408 0 0)
(474.003 0 0)
(487.537 0 0)
(498.666 0 0)
(507.222 0 0)
(513.301 0 0)
(517.27 0 0)
(519.652 0 0)
(520.984 0 0)
(521.699 0 0)
(522.084 0 0)
(522.305 0 0)
(522.447 0 0)
(522.554 0 0)
(522.646 0 0)
(522.735 0 0)
(522.826 0 0)
(522.923 0 0)
(523.029 0 0)
(523.144 0 0)
(523.271 0 0)
(523.409 0 0)
(523.561 0 0)
(523.726 0 0)
(523.905 0 0)
(524.1 0 0)
(524.31 0 0)
(524.535 0 0)
(524.776 0 0)
(525.032 0 0)
(525.298 0 0)
(525.536 0 0)
(525.525 0 0)
(524.325 0 0)
(518.883 0 0)
(501.785 0 0)
(460.562 0 0)
(383.383 0 0)
(272.48 0 0)
(155.093 0 0)
(68.8373 0 0)
(25.1099 0 0)
(8.23746 0 0)
(2.58341 0 0)
(0.794527 0 0)
(0.241497 0 0)
(0.0726338 0 0)
(0.0215962 0 0)
(0.00633744 0 0)
(0.00183209 0 0)
(0.000520805 0 0)
(0.000145323 0 0)
)
;

boundaryField
{
    sides
    {
        type            zeroGradient;
    }
    empty
    {
        type            empty;
    }
}


// ************************************************************************* //
