/*--------------------------------*- C++ -*----------------------------------*\
| =========                 |                                                 |
| \\      /  F ield         | OpenFOAM: The Open Source CFD Toolbox           |
|  \\    /   O peration     | Version:  2312                                  |
|   \\  /    A nd           | Website:  www.openfoam.com                      |
|    \\/     M anipulation  |                                                 |
\*---------------------------------------------------------------------------*/
FoamFile
{
    version     2.0;
    format      ascii;
    arch        "LSB;label=32;scalar=64";
    class       volScalarField;
    location    "6e-05";
    object      rho;
}
// * * * * * * * * * * * * * * * * * * * * * * * * * * * * * * * * * * * * * //

dimensions      [1 -3 0 0 0 0 0];

internalField   nonuniform List<scalar> 
500
(
0.00645309
0.00645756
0.0064638
0.00647219
0.0064829
0.00649605
0.00651168
0.00652983
0.00655053
0.00657382
0.00659973
0.00662829
0.00665954
0.00669351
0.00673025
0.0067698
0.0068122
0.0068575
0.00690576
0.00695703
0.00701137
0.00706885
0.00712952
0.00719347
0.00726077
0.00733149
0.00740572
0.00748355
0.00756507
0.00765038
0.00773958
0.00783279
0.00793011
0.00803167
0.00813759
0.00824801
0.00836306
0.00848289
0.00860765
0.00873751
0.00887263
0.00901318
0.00915936
0.00931136
0.00946938
0.00963362
0.00980433
0.00998172
0.010166
0.0103576
0.0105565
0.0107632
0.010978
0.0112011
0.0114328
0.0116736
0.0119237
0.0121836
0.0124535
0.012734
0.0130255
0.0133283
0.0136431
0.0139702
0.0143102
0.0146636
0.0150311
0.0154131
0.0158103
0.0162234
0.0166531
0.0171001
0.0175651
0.0180489
0.0185524
0.0190764
0.0196219
0.0201898
0.0207812
0.021397
0.0220385
0.0227067
0.0234029
0.0241284
0.0248845
0.0256727
0.0264944
0.0273513
0.0282449
0.029177
0.0301494
0.0311641
0.0322229
0.033328
0.0344816
0.0356861
0.0369439
0.0382574
0.0396295
0.0410629
0.0425606
0.0441256
0.0457614
0.0474712
0.0492587
0.0511277
0.0530821
0.0551262
0.0572642
0.0595008
0.0618408
0.0642892
0.0668514
0.069533
0.0723398
0.0752779
0.0783538
0.0815743
0.0849464
0.0884777
0.0921758
0.0960491
0.100106
0.104356
0.108808
0.113472
0.118359
0.12348
0.128845
0.134468
0.140361
0.146537
0.15301
0.159795
0.166908
0.174364
0.182181
0.190377
0.198971
0.207982
0.217433
0.227344
0.23774
0.248645
0.260086
0.272089
0.284685
0.297904
0.311779
0.326344
0.341638
0.357698
0.374567
0.392289
0.410911
0.430485
0.451063
0.472705
0.49547
0.519427
0.544645
0.571202
0.599178
0.628662
0.65975
0.692545
0.727155
0.763703
0.802318
0.843139
0.886321
0.932027
0.98044
1.03175
1.08618
1.14396
1.20534
1.2706
1.34004
1.414
1.49282
1.57692
1.66671
1.76262
1.86444
1.9725
2.08767
2.21066
2.3421
2.48259
2.63258
2.79234
2.96174
3.13991
3.32472
3.51178
3.69293
3.85375
3.97013
4.00417
3.90223
3.60282
3.0696
2.36039
1.69376
1.30311
1.18289
1.16345
1.16124
1.16102
1.161
1.161
1.161
1.161
1.161
1.161
1.161
1.161
1.161
1.161
1.161
1.161
1.161
1.161
1.161
1.161
1.161
1.161
1.161
1.161
1.161
1.161
1.161
1.161
1.161
1.161
1.161
1.161
1.161
1.161
1.161
1.161
1.161
1.161
1.161
1.161
1.161
1.161
1.161
1.161
1.161
1.161
1.161
1.161
1.161
1.161
1.161
1.161
1.161
1.161
1.161
1.161
1.161
1.161
1.161
1.161
1.161
1.161
1.161
1.161
1.161
1.161
1.161
1.161
1.161
1.161
1.161
1.161
1.161
1.161
1.161
1.161
1.161
1.161
1.161
1.161
1.161
1.161
1.161
1.161
1.161
1.161
1.161
1.161
1.161
1.161
1.161
1.161
1.161
1.161
1.161
1.161
1.161
1.161
1.161
1.161
1.161
1.161
1.161
1.161
1.161
1.161
1.161
1.161
1.161
1.161
1.161
1.161
1.161
1.161
1.161
1.161
1.161
1.161
1.161
1.161
1.161
1.161
1.161
1.161
1.161
1.161
1.161
1.161
1.161
1.161
1.161
1.161
1.161
1.161
1.161
1.161
1.161
1.161
1.161
1.161
1.161
1.161
1.161
1.161
1.161
1.161
1.161
1.161
1.161
1.161
1.161
1.161
1.161
1.161
1.161
1.161
1.161
1.161
1.161
1.161
1.161
1.161
1.161
1.161
1.161
1.161
1.161
1.161
1.161
1.161
1.161
1.161
1.161
1.161
1.161
1.161
1.161
1.161
1.161
1.161
1.161
1.161
1.161
1.161
1.161
1.161
1.161
1.161
1.161
1.161
1.161
1.161
1.161
1.161
1.161
1.161
1.161
1.161
1.161
1.161
1.161
1.161
1.161
1.161
1.161
1.161
1.161
1.161
1.161
1.161
1.161
1.161
1.161
1.161
1.161
1.161
1.161
1.161
1.161
1.161
1.161
1.161
1.161
1.161
1.161
1.161
1.161
1.161
1.161
1.161
1.161
1.161
1.161
1.161
1.161
1.161
1.161
1.161
1.161
1.161
1.161
1.161
1.161
1.161
1.161
1.161
1.161
1.161
1.161
1.161
1.161
1.161
1.161
1.161
1.161
1.161
1.161
1.161
1.161
1.161
1.161
1.161
1.161
1.161
1.161
1.161
1.161
1.161
1.161
1.161
1.161
1.161
1.161
1.161
1.161
1.161
1.161
1.161
1.161
1.161
1.161
1.161
1.161
1.161
1.161
1.161
1.161
1.161
1.161
1.161
1.161
1.161
1.161
1.161
)
;

boundaryField
{
    wedge0
    {
        type            wedge;
    }
    wedge1
    {
        type            wedge;
    }
    wedge2
    {
        type            wedge;
    }
    wedge3
    {
        type            wedge;
    }
    outlet
    {
        type            zeroGradient;
    }
    defaultFaces
    {
        type            empty;
    }
}


// ************************************************************************* //
