/*--------------------------------*- C++ -*----------------------------------*\
| =========                 |                                                 |
| \\      /  F ield         | OpenFOAM: The Open Source CFD Toolbox           |
|  \\    /   O peration     | Version:  2312                                  |
|   \\  /    A nd           | Website:  www.openfoam.com                      |
|    \\/     M anipulation  |                                                 |
\*---------------------------------------------------------------------------*/
FoamFile
{
    version     2.0;
    format      ascii;
    arch        "LSB;label=32;scalar=64";
    class       volScalarField;
    location    "6e-05";
    object      T;
}
// * * * * * * * * * * * * * * * * * * * * * * * * * * * * * * * * * * * * * //

dimensions      [0 0 0 1 0 0 0];

internalField   nonuniform List<scalar> 
500
(
337319
337228
336991
336614
336103
335460
334686
333783
332752
331595
330314
328909
327383
325739
323976
322099
320110
318009
315801
313488
311072
308556
305943
303237
300439
297554
294585
291534
288406
285202
281928
278587
275181
271714
268191
264614
260987
257313
253597
249842
246051
242228
238376
234499
230600
226683
222751
218806
214854
210896
206936
202977
199022
195073
191135
187208
183297
179404
175531
171681
167856
164058
160290
156554
152851
149185
145555
141965
138416
134909
131447
128029
124658
121335
118061
114837
111663
108542
105472
102456
99494
96586
93732.7
90934.5
88191.8
85504.7
82873.5
80298.1
77778.6
75315.1
72907.4
70555.2
68258.6
66017.1
63830.4
61698.3
59620.2
57595.7
55624.4
53705.6
51838.9
50023.5
48258.9
46544.3
44879.1
43262.6
41693.9
40172.2
38696.9
37267
35881.8
34540.3
33241.7
31985.2
30769.8
29594.7
28458.9
27361.6
26301.8
25278.7
24291.3
23338.7
22420.1
21534.4
20680.9
19858.6
19066.7
18304.3
17570.4
16864.4
16185.2
15532.1
14904.4
14301
13721.3
13164.6
12629.9
12116.6
11624
11151.3
10697.8
10262.8
9845.75
9445.89
9062.6
8695.28
8343.33
8006.15
7683.18
7373.87
7077.69
6794.12
6522.66
6262.83
6014.15
5776.17
5548.46
5330.6
5122.18
4922.8
4732.1
4549.71
4375.27
4208.45
4048.94
3896.42
3750.59
3611.17
3477.89
3350.48
3228.69
3112.29
3001.03
2894.71
2793.11
2696.03
2603.28
2514.67
2430.04
2349.2
2272.01
2198.31
2127.95
2060.82
1997.41
1937.63
1880.94
1827
1775.58
1726.51
1679.62
1634.72
1591.58
1549.9
1509.25
1469.02
1428.21
1385.3
1337.78
1281.46
1209.2
1108.61
959.872
748.69
503.977
342.742
304.094
300.326
300.028
300.003
300
300
300
300
300
300
300
300
300
300
300
300
300
300
300
300
300
300
300
300
300
300
300
300
300
300
300
300
300
300
300
300
300
300
300
300
300
300
300
300
300
300
300
300
300
300
300
300
300
300
300
300
300
300
300
300
300
300
300
300
300
300
300
300
300
300
300
300
300
300
300
300
300
300
300
300
300
300
300
300
300
300
300
300
300
300
300
300
300
300
300
300
300
300
300
300
300
300
300
300
300
300
300
300
300
300
300
300
300
300
300
300
300
300
300
300
300
300
300
300
300
300
300
300
300
300
300
300
300
300
300
300
300
300
300
300
300
300
300
300
300
300
300
300
300
300
300
300
300
300
300
300
300
300
300
300
300
300
300
300
300
300
300
300
300
300
300
300
300
300
300
300
300
300
300
300
300
300
300
300
300
300
300
300
300
300
300
300
300
300
300
300
300
300
300
300
300
300
300
300
300
300
300
300
300
300
300
300
300
300
300
300
300
300
300
300
300
300
300
300
300
300
300
300
300
300
300
300
300
300
300
300
300
300
300
300
300
300
300
300
300
300
300
300
300
300
300
300
300
300
300
300
300
300
300
300
300
300
300
300
300
300
300
300
300
300
300
300
300
300
300
300
300
300
300
300
300
300
300
300
300
300
300
300
300
300
300
300
300
300
)
;

boundaryField
{
    wedge0
    {
        type            wedge;
    }
    wedge1
    {
        type            wedge;
    }
    wedge2
    {
        type            wedge;
    }
    wedge3
    {
        type            wedge;
    }
    outlet
    {
        type            zeroGradient;
    }
    defaultFaces
    {
        type            empty;
    }
}


// ************************************************************************* //
