/*--------------------------------*- C++ -*----------------------------------*\
| =========                 |                                                 |
| \\      /  F ield         | OpenFOAM: The Open Source CFD Toolbox           |
|  \\    /   O peration     | Version:  2312                                  |
|   \\  /    A nd           | Website:  www.openfoam.com                      |
|    \\/     M anipulation  |                                                 |
\*---------------------------------------------------------------------------*/
FoamFile
{
    version     2.0;
    format      ascii;
    arch        "LSB;label=32;scalar=64";
    class       volScalarField;
    location    "6e-05";
    object      thermo:e;
}
// * * * * * * * * * * * * * * * * * * * * * * * * * * * * * * * * * * * * * //

dimensions      [0 2 -2 0 0 0 0];

internalField   nonuniform List<scalar> 
500
(
2.42094e+08
2.42029e+08
2.41858e+08
2.41588e+08
2.41221e+08
2.40759e+08
2.40204e+08
2.39556e+08
2.38816e+08
2.37986e+08
2.37066e+08
2.36058e+08
2.34963e+08
2.33783e+08
2.32518e+08
2.31171e+08
2.29743e+08
2.28235e+08
2.2665e+08
2.2499e+08
2.23256e+08
2.21451e+08
2.19575e+08
2.17633e+08
2.15625e+08
2.13555e+08
2.11424e+08
2.09234e+08
2.06989e+08
2.0469e+08
2.0234e+08
1.99942e+08
1.97497e+08
1.95009e+08
1.9248e+08
1.89913e+08
1.8731e+08
1.84674e+08
1.82007e+08
1.79312e+08
1.76591e+08
1.73847e+08
1.71082e+08
1.683e+08
1.65502e+08
1.6269e+08
1.59868e+08
1.57037e+08
1.54201e+08
1.5136e+08
1.48518e+08
1.45677e+08
1.42838e+08
1.40004e+08
1.37177e+08
1.34359e+08
1.31552e+08
1.28758e+08
1.25979e+08
1.23215e+08
1.2047e+08
1.17745e+08
1.1504e+08
1.12359e+08
1.09702e+08
1.0707e+08
1.04465e+08
1.01888e+08
9.93413e+07
9.68245e+07
9.43393e+07
9.18865e+07
8.94673e+07
8.70823e+07
8.47324e+07
8.24183e+07
8.01407e+07
7.79003e+07
7.56975e+07
7.35329e+07
7.14068e+07
6.93197e+07
6.7272e+07
6.52637e+07
6.32953e+07
6.13667e+07
5.94783e+07
5.76299e+07
5.58217e+07
5.40536e+07
5.23256e+07
5.06375e+07
4.89892e+07
4.73805e+07
4.58111e+07
4.42809e+07
4.27894e+07
4.13365e+07
3.99216e+07
3.85445e+07
3.72048e+07
3.59019e+07
3.46354e+07
3.34049e+07
3.22098e+07
3.10496e+07
2.99237e+07
2.88316e+07
2.77728e+07
2.67465e+07
2.57524e+07
2.47896e+07
2.38576e+07
2.29558e+07
2.20835e+07
2.12401e+07
2.0425e+07
1.96374e+07
1.88768e+07
1.81425e+07
1.74339e+07
1.67502e+07
1.60909e+07
1.54553e+07
1.48427e+07
1.42525e+07
1.36842e+07
1.3137e+07
1.26103e+07
1.21036e+07
1.16161e+07
1.11474e+07
1.06969e+07
1.02638e+07
9.84781e+06
9.44821e+06
9.06449e+06
8.6961e+06
8.34254e+06
8.00327e+06
7.6778e+06
7.36564e+06
7.0663e+06
6.77931e+06
6.50423e+06
6.24061e+06
5.98801e+06
5.74601e+06
5.51422e+06
5.29223e+06
5.07966e+06
4.87614e+06
4.68132e+06
4.49483e+06
4.31635e+06
4.14556e+06
3.98213e+06
3.82577e+06
3.67619e+06
3.5331e+06
3.39623e+06
3.26532e+06
3.14013e+06
3.02041e+06
2.90593e+06
2.79646e+06
2.6918e+06
2.59174e+06
2.49608e+06
2.40464e+06
2.31723e+06
2.23369e+06
2.15384e+06
2.07753e+06
2.00462e+06
1.93494e+06
1.86837e+06
1.80478e+06
1.74404e+06
1.68602e+06
1.63062e+06
1.57773e+06
1.52723e+06
1.47905e+06
1.43354e+06
1.39064e+06
1.34995e+06
1.31123e+06
1.27433e+06
1.23912e+06
1.20546e+06
1.17324e+06
1.14227e+06
1.11236e+06
1.08319e+06
1.05431e+06
1.02503e+06
994231
960125
919707
867839
795650
688900
537335
361704
245986
218248
215544
215330
215312
215310
215310
215310
215310
215310
215310
215310
215310
215310
215310
215310
215310
215310
215310
215310
215310
215310
215310
215310
215310
215310
215310
215310
215310
215310
215310
215310
215310
215310
215310
215310
215310
215310
215310
215310
215310
215310
215310
215310
215310
215310
215310
215310
215310
215310
215310
215310
215310
215310
215310
215310
215310
215310
215310
215310
215310
215310
215310
215310
215310
215310
215310
215310
215310
215310
215310
215310
215310
215310
215310
215310
215310
215310
215310
215310
215310
215310
215310
215310
215310
215310
215310
215310
215310
215310
215310
215310
215310
215310
215310
215310
215310
215310
215310
215310
215310
215310
215310
215310
215310
215310
215310
215310
215310
215310
215310
215310
215310
215310
215310
215310
215310
215310
215310
215310
215310
215310
215310
215310
215310
215310
215310
215310
215310
215310
215310
215310
215310
215310
215310
215310
215310
215310
215310
215310
215310
215310
215310
215310
215310
215310
215310
215310
215310
215310
215310
215310
215310
215310
215310
215310
215310
215310
215310
215310
215310
215310
215310
215310
215310
215310
215310
215310
215310
215310
215310
215310
215310
215310
215310
215310
215310
215310
215310
215310
215310
215310
215310
215310
215310
215310
215310
215310
215310
215310
215310
215310
215310
215310
215310
215310
215310
215310
215310
215310
215310
215310
215310
215310
215310
215310
215310
215310
215310
215310
215310
215310
215310
215310
215310
215310
215310
215310
215310
215310
215310
215310
215310
215310
215310
215310
215310
215310
215310
215310
215310
215310
215310
215310
215310
215310
215310
215310
215310
215310
215310
215310
215310
215310
215310
215310
215310
215310
215310
215310
215310
215310
215310
215310
215310
215310
215310
215310
215310
215310
215310
215310
215310
215310
215310
215310
215310
215310
215310
215310
215310
215310
215310
215310
215310
215310
215310
215310
215310
215310
215310
215310
215310
215310
215310
215310
215310
215310
215310
215310
215310
215310
215310
215310
215310
)
;

boundaryField
{
    wedge0
    {
        type            wedge;
    }
    wedge1
    {
        type            wedge;
    }
    wedge2
    {
        type            wedge;
    }
    wedge3
    {
        type            wedge;
    }
    outlet
    {
        type            zeroGradient;
    }
    defaultFaces
    {
        type            empty;
    }
}


// ************************************************************************* //
