/*--------------------------------*- C++ -*----------------------------------*\
| =========                 |                                                 |
| \\      /  F ield         | OpenFOAM: The Open Source CFD Toolbox           |
|  \\    /   O peration     | Version:  2312                                  |
|   \\  /    A nd           | Website:  www.openfoam.com                      |
|    \\/     M anipulation  |                                                 |
\*---------------------------------------------------------------------------*/
FoamFile
{
    version     2.0;
    format      ascii;
    arch        "LSB;label=32;scalar=64";
    class       volVectorField;
    location    "6e-05";
    object      U;
}
// * * * * * * * * * * * * * * * * * * * * * * * * * * * * * * * * * * * * * //

dimensions      [0 1 -1 0 0 0 0];

internalField   nonuniform List<vector> 
500
(
(4.38839 -3.78045e-10 3.77811e-10)
(7.90173 -3.60653e-10 3.60496e-10)
(11.8207 -3.75195e-10 3.75027e-10)
(15.9834 -3.74305e-10 3.74881e-10)
(20.2433 -3.46781e-10 3.46937e-10)
(24.5504 -3.47482e-10 3.47476e-10)
(28.8836 -3.44998e-10 3.45017e-10)
(33.2329 -3.37981e-10 3.38502e-10)
(37.5928 -3.18448e-10 3.19354e-10)
(41.96 -2.9226e-10 2.93726e-10)
(46.3325 -2.70425e-10 2.70889e-10)
(50.709 -2.49548e-10 2.49669e-10)
(55.0886 -2.28197e-10 2.28201e-10)
(59.4706 -2.06616e-10 2.06584e-10)
(63.8545 -1.85088e-10 1.85091e-10)
(68.2402 -1.66175e-10 1.66175e-10)
(72.6271 -1.47491e-10 1.47506e-10)
(77.0153 -1.37272e-10 1.37264e-10)
(81.4045 -1.27108e-10 1.27123e-10)
(85.7946 -1.22949e-10 1.2298e-10)
(90.1854 -1.20497e-10 1.20481e-10)
(94.577 -1.19043e-10 1.19045e-10)
(98.9693 -1.18175e-10 1.18184e-10)
(103.362 -1.1814e-10 1.18129e-10)
(107.756 -1.16288e-10 1.16278e-10)
(112.15 -1.12905e-10 1.12888e-10)
(116.544 -1.11587e-10 1.11585e-10)
(120.939 -1.11168e-10 1.11172e-10)
(125.334 -1.08833e-10 1.08833e-10)
(129.73 -1.05483e-10 1.05484e-10)
(134.126 -1.0126e-10 1.01261e-10)
(138.523 -9.86242e-11 9.86244e-11)
(142.92 -9.37821e-11 9.37822e-11)
(147.318 -8.83406e-11 8.83406e-11)
(151.716 -8.42586e-11 8.42586e-11)
(156.114 -8.01983e-11 8.01983e-11)
(160.513 -7.72779e-11 7.72779e-11)
(164.912 -7.39228e-11 7.39228e-11)
(169.312 -7.09387e-11 7.09387e-11)
(173.712 -6.77234e-11 6.77234e-11)
(178.113 -6.39601e-11 6.39601e-11)
(182.514 -5.86288e-11 5.86288e-11)
(186.915 -5.41753e-11 5.41753e-11)
(191.317 -5.05204e-11 5.05204e-11)
(195.719 -4.65645e-11 4.65645e-11)
(200.122 -4.31344e-11 4.31344e-11)
(204.526 -3.85144e-11 3.85144e-11)
(208.93 -3.41891e-11 3.41891e-11)
(213.334 -2.9223e-11 2.9223e-11)
(217.739 -2.52394e-11 2.52394e-11)
(222.145 -2.06675e-11 2.06675e-11)
(226.551 -1.67968e-11 1.67968e-11)
(230.958 -1.30783e-11 1.30783e-11)
(235.365 -1.01116e-11 1.01116e-11)
(239.773 -7.83811e-12 7.83811e-12)
(244.181 -5.01476e-12 5.01476e-12)
(248.591 -2.41564e-12 2.41564e-12)
(253.001 2.43556e-13 -2.43556e-13)
(257.412 2.35945e-12 -2.35945e-12)
(261.823 3.96593e-12 -3.96593e-12)
(266.235 4.12984e-12 -4.12984e-12)
(270.648 4.0632e-12 -4.0632e-12)
(275.062 4.03085e-12 -4.03085e-12)
(279.477 3.93698e-12 -3.93698e-12)
(283.893 3.87368e-12 -3.87368e-12)
(288.31 3.75422e-12 -3.75422e-12)
(292.727 3.75993e-12 -3.75993e-12)
(297.146 3.86816e-12 -3.86816e-12)
(301.565 3.65152e-12 -3.65152e-12)
(305.986 3.59898e-12 -3.59898e-12)
(310.408 3.54776e-12 -3.54776e-12)
(314.831 3.4987e-12 -3.4987e-12)
(319.255 3.38543e-12 -3.38543e-12)
(323.681 3.48581e-12 -3.48581e-12)
(328.108 3.3626e-12 -3.36262e-12)
(332.536 3.433e-12 -3.43307e-12)
(336.966 3.27548e-12 -3.27566e-12)
(341.397 2.98457e-12 -2.98059e-12)
(345.83 2.47066e-12 -2.46336e-12)
(350.265 1.93304e-12 -1.92137e-12)
(354.701 1.59579e-12 -1.57925e-12)
(359.139 1.45796e-12 -1.43535e-12)
(363.578 1.51759e-12 -1.48894e-12)
(368.02 1.02026e-12 -9.86431e-13)
(372.464 4.12099e-13 -3.85453e-13)
(376.91 -4.02615e-13 4.17083e-13)
(381.357 -7.61118e-13 7.61883e-13)
(385.808 -1.09634e-12 1.09711e-12)
(390.26 -9.90662e-13 9.91277e-13)
(394.716 -9.24115e-13 9.11781e-13)
(399.173 -1.00611e-12 9.80086e-13)
(403.634 -7.79198e-13 7.31932e-13)
(408.097 -6.23014e-13 6.60399e-13)
(412.564 -6.95752e-13 7.29247e-13)
(417.033 -5.29004e-13 5.57986e-13)
(421.506 -4.90366e-13 4.66373e-13)
(425.982 -5.65305e-13 5.48759e-13)
(430.462 -4.2751e-13 4.26803e-13)
(434.945 -3.95769e-13 3.963e-13)
(439.433 -2.1382e-13 2.14123e-13)
(443.924 -2.143e-13 2.14244e-13)
(448.42 -8.54637e-14 1.06811e-13)
(452.921 0 3.74235e-15)
(457.426 0 3.05808e-14)
(461.936 2.41932e-14 -1.15247e-13)
(466.451 1.67296e-13 -2.40048e-13)
(470.972 1.6821e-13 -2.21518e-13)
(475.498 3.34372e-13 -3.65212e-13)
(480.031 3.81812e-13 -3.84762e-13)
(484.57 3.07083e-13 -3.11558e-13)
(489.115 3.66564e-13 -3.71856e-13)
(493.668 5.84157e-13 -5.90142e-13)
(498.227 7.21718e-13 -7.29421e-13)
(502.795 1.03062e-12 -1.03862e-12)
(507.37 1.42702e-12 -1.43129e-12)
(511.954 1.57776e-12 -1.57779e-12)
(516.547 1.471e-12 -1.47171e-12)
(521.149 1.27357e-12 -1.27558e-12)
(525.761 9.411e-13 -9.44616e-13)
(530.383 6.01706e-13 -6.04634e-13)
(535.017 4.89222e-13 -4.91494e-13)
(539.661 4.54202e-13 -4.55995e-13)
(544.318 3.21637e-13 -3.22655e-13)
(548.987 2.47685e-13 -2.47579e-13)
(553.67 2.44334e-13 -2.44273e-13)
(558.367 2.76821e-13 -2.76735e-13)
(563.078 2.4392e-13 -2.43907e-13)
(567.805 2.42415e-13 -2.42514e-13)
(572.548 2.42057e-13 -2.42109e-13)
(577.308 2.42162e-13 -2.42163e-13)
(582.087 2.14633e-13 -2.14313e-13)
(586.885 1.08664e-13 -1.07624e-13)
(591.702 2.6832e-14 -2.48589e-14)
(596.541 -6.66136e-14 6.66136e-14)
(601.402 -2.07613e-13 2.07613e-13)
(606.286 -2.37693e-13 2.37693e-13)
(611.195 -1.43465e-13 1.43465e-13)
(616.13 -1.85282e-13 1.85282e-13)
(621.092 -2.01466e-13 2.01466e-13)
(626.083 -1.79253e-13 1.79253e-13)
(631.104 -1.44398e-13 1.44398e-13)
(636.158 -1.48144e-13 1.48144e-13)
(641.244 -2.17421e-13 2.17421e-13)
(646.366 -1.94112e-13 1.94112e-13)
(651.526 -1.66295e-13 1.66295e-13)
(656.724 -1.64816e-13 1.64816e-13)
(661.964 -1.23269e-13 1.23269e-13)
(667.247 -7.54312e-14 7.54312e-14)
(672.576 -2.83716e-14 2.83716e-14)
(677.954 3.40746e-14 -3.40746e-14)
(683.381 3.145e-14 -3.145e-14)
(688.862 -1.62427e-14 1.62427e-14)
(694.4 8.05144e-15 -8.05144e-15)
(699.996 3.9962e-14 -3.9962e-14)
(705.654 -7.85531e-15 7.85531e-15)
(711.377 0 0)
(717.169 -2.61872e-15 2.64064e-15)
(723.033 -2.96358e-14 2.96853e-14)
(728.972 -1.66433e-14 1.68341e-14)
(734.992 -6.16651e-14 6.20611e-14)
(741.094 -8.72615e-14 8.76014e-14)
(747.285 -9.9707e-14 9.99458e-14)
(753.567 -8.93652e-14 8.95219e-14)
(759.946 -1.46705e-13 1.46813e-13)
(766.426 -1.42959e-13 1.42952e-13)
(773.013 -1.32705e-13 1.32778e-13)
(779.71 -1.06786e-13 1.06848e-13)
(786.524 -7.88186e-14 7.89033e-14)
(793.46 -5.45954e-14 5.46494e-14)
(800.524 -3.38634e-14 3.39166e-14)
(807.721 -1.99998e-14 2.00683e-14)
(815.058 -3.25027e-14 3.25464e-14)
(822.541 -3.2712e-14 3.26555e-14)
(830.175 -2.1047e-14 2.10157e-14)
(837.968 -3.7626e-14 3.7531e-14)
(845.927 -5.98761e-14 5.97886e-14)
(854.057 -5.13687e-14 5.1297e-14)
(862.366 -3.95837e-14 3.95105e-14)
(870.86 -5.43262e-14 5.42533e-14)
(879.545 -2.94264e-14 2.93598e-14)
(888.429 -9.26875e-15 9.20622e-15)
(897.515 -3.8973e-15 3.84829e-15)
(906.807 5.76297e-16 -5.77743e-16)
(916.308 0 0)
(926.055 0 0)
(936.025 0 0)
(946.196 0 0)
(956.554 0 0)
(967.074 0 0)
(977.709 0 0)
(988.384 7.68944e-15 -7.68944e-15)
(998.976 4.36474e-15 -4.36474e-15)
(1009.28 1.2346e-15 -1.2346e-15)
(1018.99 -4.91592e-15 4.91592e-15)
(1027.57 1.06441e-15 -1.06441e-15)
(1034.2 0 0)
(1037.54 -4.90399e-15 4.90399e-15)
(1035.43 -2.99858e-15 2.99858e-15)
(1024.35 -5.30178e-16 5.30178e-16)
(998.644 4.0248e-15 -4.03244e-15)
(949.153 9.18601e-15 -9.18123e-15)
(861.546 8.23619e-15 -8.22801e-15)
(715.785 6.92548e-15 -6.92478e-15)
(498.654 2.69332e-15 -2.6915e-15)
(242.775 -4.09855e-15 4.09855e-15)
(62.0094 -8.14047e-15 8.14047e-15)
(8.03098 -3.51389e-15 3.51389e-15)
(0.794789 -4.17252e-15 4.17252e-15)
(0.0753844 5.14692e-16 -5.14692e-16)
(0.00708523 0 0)
(0.000661838 0 0)
(6.1462e-05 -2.44761e-15 2.44761e-15)
(5.67483e-06 -9.8992e-15 9.8992e-15)
(5.20969e-07 -1.2301e-14 1.2301e-14)
(4.75556e-08 -1.9613e-14 1.9613e-14)
(4.31583e-09 -2.19668e-14 2.19668e-14)
(3.82068e-10 -9.76261e-15 9.76261e-15)
(2.68247e-11 -2.46997e-15 2.46997e-15)
(-4.61535e-12 0 0)
(-1.80788e-11 0 0)
(-2.49606e-11 0 0)
(-8.02235e-12 0 0)
(1.72922e-11 0 0)
(3.65562e-11 2.08928e-15 -2.08928e-15)
(2.71942e-11 8.66437e-15 -8.66437e-15)
(3.68254e-12 1.78616e-15 -1.78616e-15)
(7.88781e-12 -2.83823e-15 2.83823e-15)
(1.3877e-11 -1.18062e-14 1.18062e-14)
(3.24913e-12 -7.65057e-15 7.65057e-15)
(-1.07274e-11 -7.84093e-15 7.84093e-15)
(-2.0299e-11 -1.23022e-14 1.23022e-14)
(-1.66424e-11 -4.01631e-15 4.01631e-15)
(-6.21777e-12 0 0)
(-1.16335e-11 0 0)
(-6.9544e-12 0 0)
(9.63486e-12 0 0)
(1.09274e-11 0 0)
(-3.34974e-12 0 0)
(-1.87165e-11 0 0)
(-1.6677e-11 -2.85142e-15 2.85142e-15)
(-8.18834e-12 -9.60174e-15 9.60174e-15)
(-3.8516e-12 -4.62224e-15 4.62224e-15)
(7.65956e-13 1.61029e-15 -1.61029e-15)
(1.15358e-11 1.92763e-14 -1.92763e-14)
(1.14325e-11 2.54088e-14 -2.54088e-14)
(1.08999e-12 2.30629e-14 -2.30629e-14)
(-2.16461e-12 9.5316e-15 -9.5316e-15)
(1.03545e-11 7.2252e-15 -7.2252e-15)
(1.93827e-11 8.47112e-15 -8.47112e-15)
(1.23445e-11 -1.23015e-15 1.23015e-15)
(6.42741e-13 -5.45988e-18 5.45988e-18)
(-1.09513e-11 0 0)
(-1.41838e-11 0 0)
(-1.45998e-11 0 0)
(-1.06272e-11 0 0)
(-4.2826e-12 0 0)
(-7.75035e-12 -1.70518e-15 1.70518e-15)
(-6.76685e-12 -6.81913e-15 6.81913e-15)
(-3.63056e-12 -1.70579e-15 1.70579e-15)
(-7.06482e-12 0 0)
(2.38149e-12 0 0)
(1.31956e-11 0 0)
(5.70768e-12 1.59264e-15 -1.59264e-15)
(-6.13552e-12 6.44027e-15 -6.44027e-15)
(-5.44754e-12 1.44942e-14 -1.44942e-14)
(2.94076e-13 1.2831e-14 -1.2831e-14)
(-6.58833e-12 1.43724e-14 -1.43724e-14)
(-1.52151e-11 6.39223e-15 -6.39223e-15)
(-1.1796e-11 1.61693e-15 -1.61693e-15)
(-5.40334e-12 0 0)
(-1.04583e-12 0 0)
(2.40353e-12 0 0)
(6.79498e-12 0 0)
(8.42532e-12 0 0)
(9.19193e-12 -1.48964e-15 1.48964e-15)
(7.15293e-12 -5.95592e-15 5.95592e-15)
(1.44647e-11 -1.48984e-15 1.48984e-15)
(3.12108e-11 0 0)
(2.90852e-11 0 0)
(4.85635e-12 0 0)
(-3.17345e-12 0 0)
(1.1861e-12 9.41209e-16 -9.41209e-16)
(-8.13172e-14 4.71672e-15 -4.71672e-15)
(-3.85847e-12 0 0)
(-8.59346e-12 -4.6582e-15 4.6582e-15)
(-9.97574e-12 -9.34518e-16 9.34518e-16)
(-1.0791e-11 0 0)
(-3.66167e-12 0 0)
(6.26442e-12 -2.71613e-15 2.71613e-15)
(1.05815e-11 0 0)
(4.47941e-12 0 0)
(-2.67016e-12 1.77869e-15 -1.77869e-15)
(-5.09457e-12 -1.75557e-15 1.75557e-15)
(-9.57788e-12 0 0)
(1.87737e-12 0 0)
(1.01135e-11 1.73265e-15 -1.73265e-15)
(5.49793e-12 -1.70797e-15 1.70797e-15)
(6.78811e-12 0 0)
(6.8624e-12 0 0)
(3.08689e-12 0 0)
(-1.17571e-12 -2.50087e-15 2.50087e-15)
(9.42293e-13 2.67081e-18 -2.67081e-18)
(4.32266e-12 -2.46886e-15 2.46886e-15)
(6.84091e-12 0 0)
(4.38216e-12 2.43845e-15 -2.43845e-15)
(-1.20345e-12 0 0)
(-4.27577e-12 0 0)
(-1.63355e-12 0 0)
(-5.69071e-13 -4.75063e-15 4.75063e-15)
(-1.20232e-11 -4.73547e-15 4.73547e-15)
(-2.35418e-11 -1.60424e-17 1.60424e-17)
(-4.22959e-11 0 0)
(-3.53468e-11 0 0)
(1.54934e-13 0 0)
(1.91109e-11 2.28549e-15 -2.28549e-15)
(1.90193e-11 0 0)
(8.1451e-12 0 0)
(1.98227e-11 -3.84066e-16 3.84066e-16)
(3.02682e-11 -5.23578e-15 5.23578e-15)
(1.86219e-11 -1.4499e-14 1.4499e-14)
(-2.4226e-12 -1.92888e-14 1.92888e-14)
(-8.86725e-12 -1.966e-14 1.966e-14)
(5.71413e-12 -1.5671e-14 1.5671e-14)
(1.01375e-11 -1.60377e-14 1.60377e-14)
(7.37471e-12 -1.2094e-14 1.2094e-14)
(6.21435e-12 -3.89607e-15 3.89607e-15)
(2.51445e-12 0 0)
(-5.07035e-12 0 0)
(-1.54216e-11 2.09505e-15 -2.09505e-15)
(-1.30579e-11 0 0)
(4.78066e-12 0 0)
(1.6813e-11 0 0)
(1.88126e-11 0 0)
(3.33141e-12 -4.06516e-15 4.06516e-15)
(-1.2016e-11 -4.05214e-15 4.05214e-15)
(-1.4445e-11 -1.27789e-17 1.27789e-17)
(-1.2608e-11 0 0)
(-1.4889e-11 0 0)
(-1.44757e-11 0 0)
(-1.1225e-11 0 0)
(-1.47398e-11 0 0)
(-6.93639e-12 -1.9384e-15 1.9384e-15)
(-7.69805e-13 0 0)
(-5.09145e-12 0 0)
(-6.01341e-12 1.90619e-15 -1.90619e-15)
(4.81728e-12 2.80426e-18 -2.80426e-18)
(1.63489e-11 1.88319e-15 -1.88319e-15)
(9.90652e-12 0 0)
(-3.00029e-12 -3.09645e-15 3.09645e-15)
(-5.10329e-12 -2.46339e-15 2.46339e-15)
(3.84838e-14 -5.52334e-15 5.52334e-15)
(-9.04023e-12 -4.89397e-15 4.89397e-15)
(-5.29182e-12 -6.20966e-16 6.20966e-16)
(7.91265e-12 0 0)
(1.01136e-11 0 0)
(1.02341e-11 1.78877e-15 -1.78877e-15)
(7.07046e-12 0 0)
(2.10877e-12 -4.24131e-15 4.24131e-15)
(-3.47756e-12 -4.93041e-15 4.93041e-15)
(-7.46626e-12 -2.10969e-15 2.10969e-15)
(-1.23743e-11 -2.79016e-15 2.79016e-15)
(-1.46285e-11 0 0)
(-8.95819e-12 0 0)
(6.06998e-12 -1.70933e-15 1.70933e-15)
(7.98485e-12 4.45881e-19 -4.45881e-19)
(5.55456e-12 -1.69185e-15 1.69185e-15)
(3.37849e-12 0 0)
(-6.66481e-12 1.67405e-15 -1.67405e-15)
(-1.27692e-11 0 0)
(-5.79661e-12 0 0)
(-9.65135e-14 -7.97544e-16 7.97544e-16)
(-3.95132e-12 -4.87661e-15 4.87661e-15)
(-2.08159e-12 -5.66569e-15 5.66569e-15)
(2.3892e-12 -9.69777e-15 9.69777e-15)
(5.66603e-12 -1.04784e-14 1.04784e-14)
(-2.23792e-13 -8.0376e-15 8.0376e-15)
(-7.97571e-12 -2.4142e-15 2.4142e-15)
(-6.0536e-12 0 0)
(-4.72478e-12 0 0)
(-3.04378e-12 1.57003e-15 -1.57003e-15)
(-5.42466e-12 5.84293e-19 -5.84293e-19)
(-1.10607e-11 1.55352e-15 -1.55352e-15)
(-8.92825e-12 0 0)
(-6.66824e-12 0 0)
(-7.50489e-13 -1.52799e-15 1.52799e-15)
(2.87925e-13 0 0)
(-6.70828e-13 0 0)
(3.23622e-12 0 0)
(5.53289e-12 2.99649e-15 -2.99649e-15)
(2.00802e-13 2.98895e-15 -2.98895e-15)
(-8.92391e-13 8.73602e-18 -8.73602e-18)
(8.30484e-12 0 0)
(9.5614e-13 0 0)
(-8.30323e-12 1.4601e-15 -1.4601e-15)
(-1.02882e-11 0 0)
(-9.39916e-12 0 0)
(-6.8031e-13 0 0)
(4.68099e-12 0 0)
(1.67851e-12 0 0)
(-6.22573e-13 0 0)
(1.29319e-12 0 0)
(5.62854e-12 0 0)
(1.21834e-11 5.95228e-16 -5.95228e-16)
(1.24612e-11 3.972e-15 -3.972e-15)
(7.64074e-12 1.00988e-14 -1.00988e-14)
(9.52094e-12 1.34398e-14 -1.34398e-14)
(1.27879e-11 1.40232e-14 -1.40232e-14)
(1.00761e-11 6.41726e-15 -6.41726e-15)
(4.04008e-13 1.56197e-15 -1.56197e-15)
(-2.4504e-12 -5.68891e-16 5.68891e-16)
(5.89665e-13 0 0)
(-3.5319e-12 0 0)
(-5.94599e-12 0 0)
(-7.18508e-12 0 0)
(-1.74866e-12 0 0)
(-7.55808e-14 0 0)
(-3.26725e-12 0 0)
(-3.10668e-12 0 0)
(1.41272e-12 -8.63147e-16 8.63147e-16)
(1.76868e-11 8.53969e-16 -8.53969e-16)
(2.45058e-11 0 0)
(1.87144e-11 0 0)
(1.13246e-11 -1.26737e-15 1.26737e-15)
(6.919e-12 -1.79693e-18 1.79693e-18)
(5.08363e-12 -1.25621e-15 1.25621e-15)
(-3.07422e-13 -1.53986e-18 1.53986e-18)
(-1.13855e-12 -1.24353e-15 1.24353e-15)
(1.30028e-14 0 0)
(-2.83231e-12 -8.23023e-16 8.23023e-16)
(2.95456e-12 8.15016e-16 -8.15016e-16)
(4.55687e-12 0 0)
(-1.71055e-11 1.21369e-15 -1.21369e-15)
(-2.23287e-11 -1.47435e-18 1.47435e-18)
(-1.30026e-11 1.20269e-15 -1.20269e-15)
(-7.32774e-12 0 0)
(2.84628e-12 7.96129e-16 -7.96129e-16)
(8.04387e-12 -7.89788e-16 7.89788e-16)
(1.19536e-12 0 0)
(-3.68145e-12 -9.22231e-16 9.22231e-16)
(-3.58495e-12 -4.1856e-15 4.1856e-15)
(-9.64568e-12 -9.76752e-15 9.76752e-15)
(-8.1282e-12 -8.35211e-15 8.35211e-15)
(1.13078e-11 0 0)
(7.93026e-12 8.27149e-15 -8.27149e-15)
(-9.51777e-12 9.62749e-15 -9.62749e-15)
(-1.03838e-11 4.1287e-15 -4.1287e-15)
(-1.14792e-11 9.26006e-16 -9.26006e-16)
(4.00522e-12 0 0)
(2.9941e-11 9.53667e-16 -9.53667e-16)
(3.19241e-11 4.14525e-15 -4.14525e-15)
(1.13765e-11 6.24716e-16 -6.24716e-16)
(8.92078e-12 -1.59642e-15 1.59642e-15)
(1.50924e-11 -6.01951e-15 6.01951e-15)
(9.38337e-12 -3.81534e-15 3.81534e-15)
(6.71581e-12 -3.81314e-15 3.81314e-15)
(-1.2643e-12 -5.99448e-15 5.99448e-15)
(-6.55678e-12 -1.034e-14 1.034e-14)
(-7.06216e-12 -1.68307e-14 1.68307e-14)
(-6.25824e-12 -2.54133e-14 2.54133e-14)
(5.70579e-13 -2.75304e-14 2.75304e-14)
(4.82099e-13 -2.75029e-14 2.75029e-14)
(-3.98075e-13 -2.4655e-14 2.4655e-14)
(-6.89572e-12 -1.54671e-14 1.54671e-14)
(-1.41692e-11 -8.42452e-15 8.42452e-15)
(-8.16709e-12 -3.51115e-15 3.51115e-15)
(-2.55401e-12 -7.08931e-16 7.08931e-16)
(4.52015e-12 0 0)
(1.35692e-11 0 0)
(4.2631e-12 0 0)
(-7.23871e-12 0 0)
(-1.61936e-11 0 0)
(-1.28768e-11 6.73757e-16 -6.73757e-16)
(2.35863e-12 3.28879e-15 -3.28879e-15)
(3.38369e-12 -1.67987e-16 1.67987e-16)
(-2.46744e-12 -5.62208e-15 5.62208e-15)
(-2.66638e-12 -5.04212e-15 5.04212e-15)
(1.13906e-11 -6.45965e-15 6.45965e-15)
(1.9921e-11 -1.91042e-15 1.91042e-15)
(8.60878e-12 6.41744e-16 -6.41744e-16)
(-7.02565e-12 3.70514e-15 -3.70514e-15)
(-1.87653e-11 8.70114e-16 -8.70114e-16)
(-2.15989e-11 0 0)
(-1.32455e-11 0 0)
(-1.62383e-11 -2.40206e-16 2.40206e-16)
(-1.92435e-11 -2.40894e-15 2.40894e-15)
(-1.90891e-12 -6.48998e-15 6.48998e-15)
(6.97207e-12 -4.81169e-15 4.81169e-15)
(6.92523e-12 -8.85932e-15 8.85932e-15)
(-2.09121e-13 -1.47878e-14 1.47878e-14)
(-1.60289e-11 -2.25819e-14 2.25819e-14)
(-1.44412e-11 -2.48248e-14 2.48248e-14)
(-2.08469e-12 -2.28591e-14 2.28591e-14)
(1.21151e-11 -1.53817e-14 1.53817e-14)
(1.758e-11 -9.79408e-15 9.79408e-15)
(1.29265e-11 -6.08057e-15 6.08057e-15)
(1.96857e-11 -4.22791e-15 4.22791e-15)
(1.54605e-11 -4.21985e-15 4.21985e-15)
(1.01236e-11 -6.0429e-15 6.0429e-15)
(8.07587e-12 -2.3967e-15 2.3967e-15)
(2.53415e-13 -5.81139e-16 5.81139e-16)
)
;

boundaryField
{
    wedge0
    {
        type            wedge;
    }
    wedge1
    {
        type            wedge;
    }
    wedge2
    {
        type            wedge;
    }
    wedge3
    {
        type            wedge;
    }
    outlet
    {
        type            zeroGradient;
    }
    defaultFaces
    {
        type            empty;
    }
}


// ************************************************************************* //
