/*--------------------------------*- C++ -*----------------------------------*\
| =========                 |                                                 |
| \\      /  F ield         | OpenFOAM: The Open Source CFD Toolbox           |
|  \\    /   O peration     | Version:  2312                                  |
|   \\  /    A nd           | Website:  www.openfoam.com                      |
|    \\/     M anipulation  |                                                 |
\*---------------------------------------------------------------------------*/
FoamFile
{
    version     2.0;
    format      ascii;
    arch        "LSB;label=32;scalar=64";
    class       volScalarField;
    location    "9e-05";
    object      p;
}
// * * * * * * * * * * * * * * * * * * * * * * * * * * * * * * * * * * * * * //

dimensions      [1 -1 -2 0 0 0 0];

internalField   nonuniform List<scalar> 
500
(
417192
417197
417199
417201
417201
417202
417203
417203
417203
417204
417204
417205
417205
417206
417206
417207
417208
417208
417209
417210
417211
417211
417212
417213
417214
417215
417216
417217
417218
417219
417220
417221
417222
417223
417225
417226
417227
417228
417230
417231
417232
417234
417235
417237
417238
417240
417242
417243
417245
417247
417248
417264
417255
417240
417266
417264
417262
417263
417265
417267
417269
417271
417273
417276
417278
417280
417283
417285
417287
417290
417292
417295
417297
417300
417302
417305
417307
417310
417312
417315
417318
417320
417324
417327
417330
417334
417338
417343
417348
417354
417361
417368
417377
417386
417397
417408
417421
417436
417451
417468
417487
417506
417527
417549
417571
417595
417620
417645
417671
417698
417726
417755
417785
417817
417851
417889
417931
417978
418031
418089
418152
418220
418293
418370
418450
418533
418618
418707
418799
418898
419004
419122
419252
419395
419549
419713
419885
420063
420247
420438
420641
420861
421105
421368
421650
421947
422255
422573
422906
423266
423659
424081
424528
424993
425473
425978
426527
427117
427743
428396
429067
429780
430552
431379
432242
433128
434059
435071
436154
437278
438422
439653
440983
442386
443810
445309
446943
448676
450424
452272
454288
456401
458519
460838
463328
465830
468479
471377
474330
477398
480773
484185
487790
491764
495668
500133
504388
509430
514058
519761
524783
531157
536653
543717
549785
557636
564339
573077
580476
590205
598368
609185
618189
630167
640113
653284
664291
678619
690887
706372
720174
736932
752466
770533
787989
807528
827517
848959
871390
895029
919875
946127
974383
1.00661e+06
1.04778e+06
1.08327e+06
1.08878e+06
1.0527e+06
890819
452087
137092
102124
100109
100003
99997.9
99997.6
99997.6
99997.6
99997.6
99997.6
99997.6
99997.6
99997.6
99997.6
99997.6
99997.6
99997.6
99997.6
99997.6
99997.6
99997.6
99997.6
99997.6
99997.6
99997.6
99997.6
99997.6
99997.6
99997.6
99997.6
99997.6
99997.6
99997.6
99997.6
99997.6
99997.6
99997.6
99997.6
99997.6
99997.6
99997.6
99997.6
99997.6
99997.6
99997.6
99997.6
99997.6
99997.6
99997.6
99997.6
99997.6
99997.6
99997.6
99997.6
99997.6
99997.6
99997.6
99997.6
99997.6
99997.6
99997.6
99997.6
99997.6
99997.6
99997.6
99997.6
99997.6
99997.6
99997.6
99997.6
99997.6
99997.6
99997.6
99997.6
99997.6
99997.6
99997.6
99997.6
99997.6
99997.6
99997.6
99997.6
99997.6
99997.6
99997.6
99997.6
99997.6
99997.6
99997.6
99997.6
99997.6
99997.6
99997.6
99997.6
99997.6
99997.6
99997.6
99997.6
99997.6
99997.6
99997.6
99997.6
99997.6
99997.6
99997.6
99997.6
99997.6
99997.6
99997.6
99997.6
99997.6
99997.6
99997.6
99997.6
99997.6
99997.6
99997.6
99997.6
99997.6
99997.6
99997.6
99997.6
99997.6
99997.6
99997.6
99997.6
99997.6
99997.6
99997.6
99997.6
99997.6
99997.6
99997.6
99997.6
99997.6
99997.6
99997.6
99997.6
99997.6
99997.6
99997.6
99997.6
99997.6
99997.6
99997.6
99997.6
99997.6
99997.6
99997.6
99997.6
99997.6
99997.6
99997.6
99997.6
99997.6
99997.6
99997.6
99997.6
99997.6
99997.6
99997.6
99997.6
99997.6
99997.6
99997.6
99997.6
99997.6
99997.6
99997.6
99997.6
99997.6
99997.6
99997.6
99997.6
99997.6
99997.6
99997.6
99997.6
99997.6
99997.6
99997.6
99997.6
99997.6
99997.6
99997.6
99997.6
99997.6
99997.6
99997.6
99997.6
99997.6
99997.6
99997.6
99997.6
99997.6
99997.6
99997.6
99997.6
99997.6
99997.6
99997.6
99997.6
99997.6
99997.6
99997.6
99997.6
99997.6
99997.6
99997.6
99997.6
99997.6
99997.6
99997.6
99997.6
99997.6
99997.6
99997.6
99997.6
99997.6
99997.6
99997.6
99997.6
99997.6
99997.6
99997.6
99997.6
99997.6
99997.6
99997.6
99997.6
99997.6
99997.6
99997.6
99997.6
99997.6
99997.6
99997.6
99997.6
99997.6
99997.6
99997.6
99997.6
99997.6
99997.6
99997.6
99997.6
99997.6
99997.6
99997.6
99997.6
99997.6
99997.6
99997.6
99997.6
99997.6
99997.6
99997.6
99997.6
99997.6
99997.6
)
;

boundaryField
{
    wedge0
    {
        type            wedge;
    }
    wedge1
    {
        type            wedge;
    }
    wedge2
    {
        type            wedge;
    }
    wedge3
    {
        type            wedge;
    }
    outlet
    {
        type            zeroGradient;
    }
    defaultFaces
    {
        type            empty;
    }
}


// ************************************************************************* //
