/*--------------------------------*- C++ -*----------------------------------*\
| =========                 |                                                 |
| \\      /  F ield         | OpenFOAM: The Open Source CFD Toolbox           |
|  \\    /   O peration     | Version:  2312                                  |
|   \\  /    A nd           | Website:  www.openfoam.com                      |
|    \\/     M anipulation  |                                                 |
\*---------------------------------------------------------------------------*/
FoamFile
{
    version     2.0;
    format      ascii;
    arch        "LSB;label=32;scalar=64";
    class       volScalarField;
    location    "9e-05";
    object      rho;
}
// * * * * * * * * * * * * * * * * * * * * * * * * * * * * * * * * * * * * * //

dimensions      [1 -3 0 0 0 0 0];

internalField   nonuniform List<scalar> 
500
(
0.000294799
0.000294823
0.000294867
0.000294936
0.000295037
0.000295176
0.000295358
0.000295591
0.000295881
0.000296233
0.000296655
0.000297153
0.000297735
0.000298406
0.000299174
0.000300046
0.000301031
0.000302134
0.000303366
0.000304734
0.000306247
0.000307914
0.000309745
0.00031175
0.000313941
0.000316329
0.000318927
0.000321747
0.000324805
0.000328115
0.000331694
0.000335561
0.000339734
0.000344236
0.000349088
0.000354318
0.000359951
0.000366019
0.000372556
0.000379598
0.000387185
0.000395364
0.000404185
0.000413704
0.000423983
0.000435092
0.000447111
0.000460128
0.000474242
0.000489566
0.000506229
0.00052439
0.00054417
0.000565484
0.000588156
0.000612082
0.00063731
0.000663909
0.000691958
0.000721539
0.000752745
0.000785673
0.000820429
0.000857123
0.000895874
0.00093681
0.000980064
0.00102578
0.00107411
0.00112522
0.00117928
0.00123648
0.00129701
0.00136109
0.00142892
0.00150077
0.00157686
0.00165749
0.00174293
0.00183348
0.00192948
0.00203127
0.00213921
0.00225371
0.00237517
0.00250404
0.00264079
0.00278592
0.00293997
0.0031035
0.00327711
0.00346144
0.00365717
0.00386503
0.00408576
0.00432018
0.00456916
0.0048336
0.00511446
0.00541276
0.00572959
0.00606608
0.00642344
0.00680295
0.00720596
0.00763387
0.0080882
0.00857052
0.0090825
0.00962589
0.0102025
0.0108144
0.0114635
0.012152
0.0128822
0.0136565
0.0144773
0.0153472
0.0162691
0.0172457
0.01828
0.0193751
0.0205341
0.0217605
0.0230575
0.0244288
0.0258781
0.0274092
0.029026
0.0307328
0.032534
0.034434
0.0364377
0.0385497
0.0407748
0.043118
0.0455842
0.0481785
0.0509063
0.0537732
0.0567854
0.0599494
0.063272
0.0667594
0.070418
0.0742542
0.0782743
0.0824853
0.0868948
0.091512
0.0963457
0.101404
0.106693
0.112222
0.117998
0.124031
0.130334
0.136916
0.143788
0.150956
0.15843
0.166225
0.174357
0.182839
0.191678
0.200883
0.210474
0.220475
0.230901
0.241757
0.253054
0.26483
0.277108
0.2899
0.303205
0.317065
0.331523
0.346593
0.362259
0.378583
0.395621
0.413371
0.431809
0.451069
0.471163
0.492031
0.513794
0.536531
0.560162
0.584782
0.610519
0.637241
0.665126
0.694299
0.724566
0.756297
0.78916
0.82371
0.859412
0.897067
0.935826
0.976829
1.01886
1.06349
1.10914
1.1578
1.20741
1.2605
1.31441
1.37237
1.43096
1.49424
1.55789
1.62694
1.69609
1.77128
1.8464
1.92796
2.00961
2.09778
2.18668
2.28197
2.37876
2.48153
2.58664
2.69741
2.8121
2.93212
3.05689
3.18673
3.32167
3.46205
3.60901
3.7673
3.9528
4.12067
4.19939
4.17471
3.79308
2.44186
1.34413
1.17565
1.16187
1.16105
1.161
1.161
1.161
1.161
1.161
1.161
1.161
1.161
1.161
1.161
1.161
1.161
1.161
1.161
1.161
1.161
1.161
1.161
1.161
1.161
1.161
1.161
1.161
1.161
1.161
1.161
1.161
1.161
1.161
1.161
1.161
1.161
1.161
1.161
1.161
1.161
1.161
1.161
1.161
1.161
1.161
1.161
1.161
1.161
1.161
1.161
1.161
1.161
1.161
1.161
1.161
1.161
1.161
1.161
1.161
1.161
1.161
1.161
1.161
1.161
1.161
1.161
1.161
1.161
1.161
1.161
1.161
1.161
1.161
1.161
1.161
1.161
1.161
1.161
1.161
1.161
1.161
1.161
1.161
1.161
1.161
1.161
1.161
1.161
1.161
1.161
1.161
1.161
1.161
1.161
1.161
1.161
1.161
1.161
1.161
1.161
1.161
1.161
1.161
1.161
1.161
1.161
1.161
1.161
1.161
1.161
1.161
1.161
1.161
1.161
1.161
1.161
1.161
1.161
1.161
1.161
1.161
1.161
1.161
1.161
1.161
1.161
1.161
1.161
1.161
1.161
1.161
1.161
1.161
1.161
1.161
1.161
1.161
1.161
1.161
1.161
1.161
1.161
1.161
1.161
1.161
1.161
1.161
1.161
1.161
1.161
1.161
1.161
1.161
1.161
1.161
1.161
1.161
1.161
1.161
1.161
1.161
1.161
1.161
1.161
1.161
1.161
1.161
1.161
1.161
1.161
1.161
1.161
1.161
1.161
1.161
1.161
1.161
1.161
1.161
1.161
1.161
1.161
1.161
1.161
1.161
1.161
1.161
1.161
1.161
1.161
1.161
1.161
1.161
1.161
1.161
1.161
1.161
1.161
1.161
1.161
1.161
1.161
1.161
1.161
1.161
1.161
1.161
1.161
1.161
1.161
1.161
1.161
1.161
1.161
1.161
1.161
1.161
1.161
1.161
1.161
1.161
1.161
1.161
1.161
1.161
1.161
1.161
1.161
1.161
1.161
1.161
1.161
1.161
1.161
1.161
1.161
1.161
1.161
1.161
1.161
1.161
1.161
1.161
1.161
1.161
1.161
1.161
1.161
1.161
1.161
1.161
1.161
1.161
1.161
1.161
1.161
1.161
1.161
1.161
1.161
)
;

boundaryField
{
    wedge0
    {
        type            wedge;
    }
    wedge1
    {
        type            wedge;
    }
    wedge2
    {
        type            wedge;
    }
    wedge3
    {
        type            wedge;
    }
    outlet
    {
        type            zeroGradient;
    }
    defaultFaces
    {
        type            empty;
    }
}


// ************************************************************************* //
