/*--------------------------------*- C++ -*----------------------------------*\
| =========                 |                                                 |
| \\      /  F ield         | OpenFOAM: The Open Source CFD Toolbox           |
|  \\    /   O peration     | Version:  2312                                  |
|   \\  /    A nd           | Website:  www.openfoam.com                      |
|    \\/     M anipulation  |                                                 |
\*---------------------------------------------------------------------------*/
FoamFile
{
    version     2.0;
    format      ascii;
    arch        "LSB;label=32;scalar=64";
    class       volScalarField;
    location    "9e-05";
    object      T;
}
// * * * * * * * * * * * * * * * * * * * * * * * * * * * * * * * * * * * * * //

dimensions      [0 0 0 1 0 0 0];

internalField   nonuniform List<scalar> 
500
(
4.92918e+06
4.92884e+06
4.92813e+06
4.92698e+06
4.9253e+06
4.923e+06
4.91996e+06
4.91609e+06
4.91129e+06
4.90545e+06
4.89848e+06
4.89027e+06
4.88073e+06
4.86976e+06
4.85726e+06
4.84314e+06
4.82732e+06
4.80969e+06
4.79017e+06
4.76868e+06
4.74513e+06
4.71945e+06
4.69156e+06
4.66139e+06
4.62887e+06
4.59393e+06
4.55653e+06
4.5166e+06
4.47409e+06
4.42896e+06
4.38118e+06
4.33071e+06
4.27752e+06
4.2216e+06
4.16292e+06
4.1015e+06
4.03732e+06
3.97039e+06
3.90075e+06
3.8284e+06
3.75339e+06
3.67575e+06
3.59554e+06
3.51283e+06
3.42768e+06
3.34017e+06
3.2504e+06
3.15846e+06
3.06447e+06
2.96856e+06
2.87085e+06
2.77153e+06
2.67073e+06
2.56998e+06
2.47106e+06
2.37446e+06
2.28046e+06
2.1891e+06
2.10037e+06
2.01427e+06
1.93078e+06
1.84987e+06
1.77151e+06
1.69568e+06
1.62234e+06
1.55146e+06
1.483e+06
1.41691e+06
1.35316e+06
1.29171e+06
1.2325e+06
1.17549e+06
1.12064e+06
1.06789e+06
1.0172e+06
968510
921776
876944
833962
792778
753339
715594
679490
644975
611998
580507
550451
521781
494447
468400
443593
419978
397509
376140
355828
336529
318202
300804
284296
268639
253795
239728
226402
213783
201838
190535
179843
169732
160174
151142
142609
134550
126940
119757
112978
106583
100550
94861.1
89497.1
84440.7
79675
75184
70952.6
66966.2
63211.3
59674.8
56344.3
53208.2
50255.4
47475.5
44858.6
42395.2
40076.4
37893.6
35838.9
33904.6
32083.4
30368.6
28753.9
27233.3
25801.1
24452.2
23181.6
21984.3
20856.1
19792.5
18789.7
17843.9
16951.7
16110.1
15316.1
14566.6
13859
13190.7
12559.2
11962.5
11398.7
10865.7
10361.6
9884.6
9433.06
9005.64
8601.01
8217.77
7854.52
7509.96
7183.16
6873.29
6579.28
6300.02
6034.54
5782.39
5542.9
5315.17
5098.29
4891.9
4695.72
4508.96
4330.78
4161.04
3999.6
3845.66
3698.53
3558.52
3425.17
3297.6
3175.89
3060.12
2949.38
2843.49
2742.87
2646.5
2554.42
2467.03
2382.74
2303.34
2226.2
2154.14
2083.41
2018.1
1953.21
1893.95
1834.61
1780.76
1726.52
1677.58
1627.98
1583.56
1538.21
1497.94
1456.49
1420.01
1382.13
1349.11
1314.53
1284.63
1253.13
1226.01
1197.45
1172.84
1147.14
1124.81
1101.79
1081.52
1061.08
1042.74
1024.97
1008.48
992.879
978.265
964.576
951.876
940.385
930.67
923.272
915.654
903.061
878.299
818.016
644.86
355.253
302.56
300.11
300.005
300
300
300
300
300
300
300
300
300
300
300
300
300
300
300
300
300
300
300
300
300
300
300
300
300
300
300
300
300
300
300
300
300
300
300
300
300
300
300
300
300
300
300
300
300
300
300
300
300
300
300
300
300
300
300
300
300
300
300
300
300
300
300
300
300
300
300
300
300
300
300
300
300
300
300
300
300
300
300
300
300
300
300
300
300
300
300
300
300
300
300
300
300
300
300
300
300
300
300
300
300
300
300
300
300
300
300
300
300
300
300
300
300
300
300
300
300
300
300
300
300
300
300
300
300
300
300
300
300
300
300
300
300
300
300
300
300
300
300
300
300
300
300
300
300
300
300
300
300
300
300
300
300
300
300
300
300
300
300
300
300
300
300
300
300
300
300
300
300
300
300
300
300
300
300
300
300
300
300
300
300
300
300
300
300
300
300
300
300
300
300
300
300
300
300
300
300
300
300
300
300
300
300
300
300
300
300
300
300
300
300
300
300
300
300
300
300
300
300
300
300
300
300
300
300
300
300
300
300
300
300
300
300
300
300
300
300
300
300
300
300
300
300
300
300
300
300
300
300
300
300
300
300
300
300
300
)
;

boundaryField
{
    wedge0
    {
        type            wedge;
    }
    wedge1
    {
        type            wedge;
    }
    wedge2
    {
        type            wedge;
    }
    wedge3
    {
        type            wedge;
    }
    outlet
    {
        type            zeroGradient;
    }
    defaultFaces
    {
        type            empty;
    }
}


// ************************************************************************* //
