/*--------------------------------*- C++ -*----------------------------------*\
| =========                 |                                                 |
| \\      /  F ield         | OpenFOAM: The Open Source CFD Toolbox           |
|  \\    /   O peration     | Version:  2312                                  |
|   \\  /    A nd           | Website:  www.openfoam.com                      |
|    \\/     M anipulation  |                                                 |
\*---------------------------------------------------------------------------*/
FoamFile
{
    version     2.0;
    format      ascii;
    arch        "LSB;label=32;scalar=64";
    class       volScalarField;
    location    "9e-05";
    object      thermo:e;
}
// * * * * * * * * * * * * * * * * * * * * * * * * * * * * * * * * * * * * * //

dimensions      [0 2 -2 0 0 0 0];

internalField   nonuniform List<scalar> 
500
(
3.53767e+09
3.53743e+09
3.53692e+09
3.53609e+09
3.53489e+09
3.53324e+09
3.53106e+09
3.52828e+09
3.52483e+09
3.52064e+09
3.51564e+09
3.50975e+09
3.5029e+09
3.49502e+09
3.48606e+09
3.47592e+09
3.46456e+09
3.45191e+09
3.4379e+09
3.42248e+09
3.40558e+09
3.38715e+09
3.36713e+09
3.34548e+09
3.32214e+09
3.29706e+09
3.27022e+09
3.24156e+09
3.21105e+09
3.17867e+09
3.14437e+09
3.10815e+09
3.06998e+09
3.02984e+09
2.98773e+09
2.94364e+09
2.89758e+09
2.84955e+09
2.79957e+09
2.74764e+09
2.6938e+09
2.63809e+09
2.58052e+09
2.52116e+09
2.46004e+09
2.39724e+09
2.33281e+09
2.26683e+09
2.19937e+09
2.13053e+09
2.06041e+09
1.98913e+09
1.91679e+09
1.84447e+09
1.77348e+09
1.70415e+09
1.63668e+09
1.57112e+09
1.50744e+09
1.44564e+09
1.38572e+09
1.32765e+09
1.27141e+09
1.21699e+09
1.16435e+09
1.11348e+09
1.06435e+09
1.01692e+09
9.71164e+08
9.27057e+08
8.84563e+08
8.4365e+08
8.04282e+08
7.66425e+08
7.30043e+08
6.951e+08
6.61559e+08
6.29383e+08
5.98534e+08
5.68977e+08
5.40672e+08
5.13582e+08
4.8767e+08
4.62899e+08
4.39231e+08
4.1663e+08
3.95059e+08
3.74482e+08
3.54865e+08
3.36171e+08
3.18367e+08
3.01418e+08
2.85292e+08
2.69956e+08
2.55378e+08
2.41527e+08
2.28373e+08
2.15887e+08
2.04039e+08
1.92802e+08
1.82149e+08
1.72053e+08
1.62489e+08
1.53432e+08
1.44859e+08
1.36747e+08
1.29073e+08
1.21817e+08
1.14957e+08
1.08475e+08
1.0235e+08
9.65663e+07
9.11049e+07
8.59496e+07
8.10845e+07
7.64944e+07
7.21648e+07
6.80818e+07
6.42321e+07
6.06031e+07
5.71827e+07
5.39596e+07
5.09227e+07
4.80617e+07
4.53667e+07
4.28286e+07
4.04383e+07
3.81875e+07
3.60683e+07
3.40732e+07
3.2195e+07
3.0427e+07
2.87628e+07
2.71963e+07
2.57216e+07
2.43333e+07
2.30263e+07
2.17956e+07
2.06367e+07
1.95453e+07
1.85175e+07
1.75493e+07
1.66374e+07
1.57782e+07
1.49684e+07
1.42051e+07
1.34853e+07
1.28065e+07
1.21662e+07
1.15622e+07
1.09924e+07
1.04545e+07
9.94664e+06
9.46697e+06
9.01375e+06
8.5855e+06
8.18082e+06
7.79828e+06
7.4365e+06
7.09418e+06
6.77011e+06
6.46335e+06
6.17295e+06
5.89789e+06
5.63719e+06
5.3899e+06
5.15535e+06
4.93296e+06
4.72195e+06
4.52152e+06
4.33099e+06
4.15002e+06
3.97814e+06
3.8147e+06
3.65904e+06
3.51092e+06
3.37012e+06
3.23608e+06
3.1082e+06
2.98638e+06
2.87051e+06
2.76003e+06
2.65443e+06
2.55395e+06
2.45824e+06
2.36669e+06
2.27933e+06
2.19625e+06
2.11677e+06
2.04077e+06
1.96856e+06
1.89939e+06
1.83331e+06
1.77059e+06
1.71009e+06
1.6531e+06
1.59774e+06
1.54603e+06
1.49526e+06
1.44839e+06
1.40182e+06
1.35929e+06
1.3167e+06
1.27805e+06
1.23912e+06
1.204e+06
1.1684e+06
1.13652e+06
1.10398e+06
1.07507e+06
1.04532e+06
1.01914e+06
991953
968258
943438
921978
899375
879906
859413
841744
823301
807279
790757
776209
761538
748372
735619
723788
712589
702101
692276
683161
674914
667942
662632
657165
648127
630355
587090
462816
254965
217147
215389
215314
215310
215310
215310
215310
215310
215310
215310
215310
215310
215310
215310
215310
215310
215310
215310
215310
215310
215310
215310
215310
215310
215310
215310
215310
215310
215310
215310
215310
215310
215310
215310
215310
215310
215310
215310
215310
215310
215310
215310
215310
215310
215310
215310
215310
215310
215310
215310
215310
215310
215310
215310
215310
215310
215310
215310
215310
215310
215310
215310
215310
215310
215310
215310
215310
215310
215310
215310
215310
215310
215310
215310
215310
215310
215310
215310
215310
215310
215310
215310
215310
215310
215310
215310
215310
215310
215310
215310
215310
215310
215310
215310
215310
215310
215310
215310
215310
215310
215310
215310
215310
215310
215310
215310
215310
215310
215310
215310
215310
215310
215310
215310
215310
215310
215310
215310
215310
215310
215310
215310
215310
215310
215310
215310
215310
215310
215310
215310
215310
215310
215310
215310
215310
215310
215310
215310
215310
215310
215310
215310
215310
215310
215310
215310
215310
215310
215310
215310
215310
215310
215310
215310
215310
215310
215310
215310
215310
215310
215310
215310
215310
215310
215310
215310
215310
215310
215310
215310
215310
215310
215310
215310
215310
215310
215310
215310
215310
215310
215310
215310
215310
215310
215310
215310
215310
215310
215310
215310
215310
215310
215310
215310
215310
215310
215310
215310
215310
215310
215310
215310
215310
215310
215310
215310
215310
215310
215310
215310
215310
215310
215310
215310
215310
215310
215310
215310
215310
215310
215310
215310
215310
215310
215310
215310
215310
215310
215310
215310
215310
215310
215310
215310
215310
215310
215310
215310
215310
215310
215310
215310
215310
215310
215310
215310
215310
215310
215310
215310
215310
215310
215310
215310
215310
215310
215310
215310
215310
)
;

boundaryField
{
    wedge0
    {
        type            wedge;
    }
    wedge1
    {
        type            wedge;
    }
    wedge2
    {
        type            wedge;
    }
    wedge3
    {
        type            wedge;
    }
    outlet
    {
        type            zeroGradient;
    }
    defaultFaces
    {
        type            empty;
    }
}


// ************************************************************************* //
