/*--------------------------------*- C++ -*----------------------------------*\
| =========                 |                                                 |
| \\      /  F ield         | OpenFOAM: The Open Source CFD Toolbox           |
|  \\    /   O peration     | Version:  2312                                  |
|   \\  /    A nd           | Website:  www.openfoam.com                      |
|    \\/     M anipulation  |                                                 |
\*---------------------------------------------------------------------------*/
FoamFile
{
    version     2.0;
    format      ascii;
    arch        "LSB;label=32;scalar=64";
    class       volVectorField;
    location    "9e-05";
    object      U;
}
// * * * * * * * * * * * * * * * * * * * * * * * * * * * * * * * * * * * * * //

dimensions      [0 1 -1 0 0 0 0];

internalField   nonuniform List<vector> 
500
(
(2.37432 -1.84481e-08 1.92523e-08)
(4.82825 -1.85149e-08 1.93525e-08)
(7.57003 -1.89367e-08 1.97872e-08)
(10.3815 -1.9451e-08 2.02549e-08)
(13.2195 -1.90724e-08 1.98152e-08)
(16.0715 -1.9281e-08 1.99603e-08)
(18.933 -1.9215e-08 1.98601e-08)
(21.8016 -1.89764e-08 1.95971e-08)
(24.6758 -1.81568e-08 1.87591e-08)
(27.5546 -1.69092e-08 1.74988e-08)
(30.4372 -1.55299e-08 1.61267e-08)
(33.3237 -1.40585e-08 1.46504e-08)
(36.2135 -1.24955e-08 1.30846e-08)
(39.1075 -1.05914e-08 1.11656e-08)
(42.0056 -8.54891e-09 9.07632e-09)
(44.9082 -6.40953e-09 6.89749e-09)
(47.8163 -4.41233e-09 4.87824e-09)
(50.7305 -3.11032e-09 3.55996e-09)
(53.6516 -1.63746e-09 2.01759e-09)
(56.5806 -9.71208e-10 1.31911e-09)
(59.5182 -6.47761e-10 9.68554e-10)
(62.4651 -6.49938e-10 9.47798e-10)
(65.4223 -9.58755e-10 1.23247e-09)
(68.3905 -1.4281e-09 1.69186e-09)
(71.3707 -1.67756e-09 1.93516e-09)
(74.3639 -1.71386e-09 1.96844e-09)
(77.3714 -1.86417e-09 2.07418e-09)
(80.3945 -2.14657e-09 2.34563e-09)
(83.4346 -1.83503e-09 2.02281e-09)
(86.493 -1.70845e-09 1.87676e-09)
(89.5711 -1.76296e-09 1.93906e-09)
(92.6703 -1.99698e-09 2.15642e-09)
(95.7921 -1.7713e-09 1.91759e-09)
(98.9381 -1.62899e-09 1.7118e-09)
(102.11 -1.42033e-09 1.47224e-09)
(105.311 -1.42548e-09 1.42548e-09)
(108.541 -1.24434e-09 1.24435e-09)
(111.804 -1.17248e-09 1.17248e-09)
(115.101 -1.25215e-09 1.25215e-09)
(118.433 -1.54664e-09 1.54664e-09)
(121.805 -1.61689e-09 1.61689e-09)
(125.217 -1.36531e-09 1.36531e-09)
(128.675 -1.13432e-09 1.13432e-09)
(132.181 -1.02137e-09 1.02137e-09)
(135.738 -9.76122e-10 9.76122e-10)
(139.35 -1.08938e-09 1.08938e-09)
(143.019 -9.9824e-10 9.9824e-10)
(146.752 -1.01077e-09 1.01077e-09)
(150.547 -8.42377e-10 8.42377e-10)
(154.433 -8.13251e-10 8.13251e-10)
(158.265 -7.93367e-10 7.93367e-10)
(162.149 -7.85575e-10 7.85575e-10)
(164.51 -7.80813e-10 7.80813e-10)
(163.484 -7.76668e-10 7.76668e-10)
(163.131 -7.67938e-10 7.67938e-10)
(164.928 -7.57577e-10 7.57577e-10)
(167.399 -7.26586e-10 7.26586e-10)
(170.037 -6.48275e-10 6.48275e-10)
(172.728 -4.65151e-10 4.65151e-10)
(175.463 -1.23671e-10 1.23671e-10)
(178.203 -1.29864e-11 1.29864e-11)
(180.956 2.42518e-11 -2.42518e-11)
(183.708 1.62711e-12 -1.62711e-12)
(186.464 1.57749e-12 -1.57749e-12)
(189.22 0 4.73333e-31)
(191.978 2.27302e-11 -2.27302e-11)
(194.735 -1.24244e-11 1.24244e-11)
(197.493 1.57634e-10 -1.57634e-10)
(200.252 1.26257e-10 -1.26257e-10)
(203.012 7.29514e-11 -7.29514e-11)
(205.772 3.02625e-11 -3.02625e-11)
(208.533 9.7565e-12 -9.7565e-12)
(211.295 1.3382e-12 -1.3382e-12)
(214.058 9.53288e-12 -9.53288e-12)
(216.822 -1.96409e-11 1.96409e-11)
(219.588 5.67789e-11 -5.67789e-11)
(222.354 5.31096e-11 -5.31096e-11)
(225.124 2.65402e-11 -2.65402e-11)
(227.894 8.93559e-12 -8.93559e-12)
(230.669 1.21874e-12 -1.21603e-12)
(233.444 8.66043e-12 -8.66116e-12)
(236.224 -1.58735e-11 1.58743e-11)
(239.007 3.83283e-11 -3.83278e-11)
(241.793 3.6922e-11 -3.69218e-11)
(244.585 4.34192e-11 -4.33769e-11)
(247.378 1.18758e-12 -1.18958e-12)
(250.179 7.99215e-12 -7.99179e-12)
(252.98 -1.52103e-11 1.5211e-11)
(255.79 -1.9622e-11 1.96217e-11)
(258.599 -1.13199e-12 1.13177e-12)
(261.416 -2.31507e-11 2.31498e-11)
(264.231 -3.61806e-11 3.61497e-11)
(267.054 -1.18417e-11 1.76147e-11)
(269.875 -2.65458e-11 3.45023e-11)
(272.699 -2.6319e-11 2.63192e-11)
(275.524 -1.60793e-11 2.17484e-11)
(278.347 -1.59874e-11 2.0117e-11)
(281.175 -5.12126e-12 5.12074e-12)
(283.999 -1.91978e-11 1.69389e-11)
(286.828 1.88826e-12 -8.29832e-12)
(289.653 -4.90604e-12 4.90566e-12)
(292.483 8.83798e-12 -8.83815e-12)
(295.313 -5.28741e-12 5.49487e-12)
(298.144 8.72433e-12 -8.68498e-12)
(300.978 -5.20149e-12 5.17534e-12)
(303.812 1.41901e-11 -1.32374e-11)
(306.649 -2.794e-12 2.78252e-12)
(309.484 6.6135e-12 -7.31601e-12)
(312.321 2.22591e-12 -5.59558e-13)
(315.158 4.11094e-12 -4.11128e-12)
(317.999 -3.71136e-12 4.02498e-12)
(320.843 7.83853e-12 -6.75163e-12)
(323.693 6.65373e-12 -6.65397e-12)
(326.55 6.59558e-12 -6.2414e-12)
(329.413 9.12794e-12 -9.83671e-12)
(332.284 1.54167e-11 -1.4307e-11)
(335.159 1.42706e-11 -1.70683e-11)
(338.034 1.38427e-11 -1.39398e-11)
(340.912 1.41862e-11 -1.30197e-11)
(343.784 8.21999e-12 -7.19256e-12)
(346.656 3.59976e-12 -4.15707e-12)
(349.527 1.02926e-11 -8.33314e-12)
(352.398 7.52258e-12 -9.40056e-12)
(355.268 7.39073e-12 -8.49471e-12)
(358.141 7.01511e-12 -7.04706e-12)
(361.014 6.02309e-12 -4.84335e-12)
(363.892 5.07056e-12 -4.46921e-12)
(366.774 3.93667e-12 -4.66642e-12)
(369.669 5.34871e-12 -4.77801e-12)
(372.569 3.79992e-12 -4.02322e-12)
(375.476 5.87483e-12 -5.29511e-12)
(378.383 2.18754e-12 -3.45012e-12)
(381.283 3.55796e-12 -2.36263e-12)
(384.184 2.20293e-12 -1.64468e-12)
(387.085 2.07279e-12 -2.80957e-12)
(389.987 -1.44211e-13 -4.53852e-13)
(392.895 1.42893e-12 -1.79549e-12)
(395.812 1.6579e-12 -2.11706e-12)
(398.741 1.26141e-12 -1.3534e-12)
(401.688 1.34125e-12 -8.50087e-13)
(404.638 -1.08258e-13 1.94979e-13)
(407.582 7.99798e-13 -2.59324e-13)
(410.51 -5.49306e-13 9.79718e-13)
(413.436 -6.58036e-14 3.81919e-13)
(416.369 -2.05676e-13 2.05682e-13)
(419.313 1.19913e-15 -1.22569e-15)
(422.285 -4.09875e-13 2.59131e-13)
(425.277 -1.53881e-13 -1.17306e-13)
(428.283 -2.02817e-13 1.00001e-13)
(431.27 -1.57272e-14 -3.06569e-13)
(434.228 2.02079e-13 -2.81237e-13)
(437.189 -1.51766e-13 1.17552e-13)
(440.164 -1.41349e-13 9.29922e-14)
(443.178 1.77951e-13 -1.77527e-13)
(446.236 1.98617e-13 -1.98642e-13)
(449.301 -1.97727e-13 1.97731e-13)
(452.328 3.54098e-13 -3.68656e-13)
(455.329 -5.60191e-13 4.88831e-13)
(458.344 2.63738e-13 -1.94975e-13)
(461.405 -4.7394e-13 2.28902e-13)
(464.535 -9.87526e-14 -2.42633e-15)
(467.667 -6.36858e-13 4.22821e-13)
(470.742 -1.28348e-13 3.49139e-14)
(473.804 -3.85078e-13 3.28143e-13)
(476.905 -6.52081e-13 5.96696e-13)
(480.089 -3.99152e-13 3.64257e-13)
(483.31 -6.17868e-13 5.09598e-13)
(486.457 -4.45808e-13 4.02044e-13)
(489.588 -3.45312e-13 3.4278e-13)
(492.775 -3.52405e-13 3.5011e-13)
(496.072 -2.58776e-13 2.5648e-13)
(499.362 -2.98442e-13 2.96716e-13)
(502.559 -3.38269e-13 3.35978e-13)
(505.79 -2.56526e-13 2.52071e-13)
(509.156 -3.39087e-13 3.3724e-13)
(512.571 -2.84359e-13 2.79865e-13)
(515.853 -4.03898e-13 4.02121e-13)
(519.167 -2.27222e-13 2.26272e-13)
(522.647 -3.46667e-13 3.44577e-13)
(526.17 -2.95626e-13 2.94472e-13)
(529.527 -1.74625e-13 1.73625e-13)
(532.971 -1.17943e-13 1.1764e-13)
(536.635 -9.25658e-14 9.33938e-14)
(540.206 -7.50363e-14 7.62535e-14)
(543.672 -9.25646e-14 9.36382e-14)
(547.366 -8.57723e-14 8.59442e-14)
(551.152 -1.17401e-13 1.17267e-13)
(554.707 -1.06465e-13 1.06674e-13)
(558.478 -1.0316e-13 1.03325e-13)
(562.438 -1.14384e-13 1.14385e-13)
(566.101 -6.29075e-14 6.27762e-14)
(570.026 -7.01977e-14 7.01505e-14)
(574.078 -2.44559e-14 2.43285e-14)
(577.905 -4.28669e-14 4.28274e-14)
(582.212 -5.04472e-14 5.0434e-14)
(586.061 1.34487e-15 -1.34841e-15)
(590.564 -4.84699e-14 4.84205e-14)
(594.444 -2.96033e-14 2.95622e-14)
(599.197 -3.63698e-14 3.62547e-14)
(603.084 -1.62825e-14 1.62359e-14)
(608.095 3.24143e-14 -3.255e-14)
(611.983 1.38485e-14 -1.38229e-14)
(617.204 3.46786e-14 -3.47392e-14)
(621.151 1.75576e-14 -1.74961e-14)
(626.594 2.64888e-14 -2.65308e-14)
(630.61 -1.73898e-14 1.74924e-14)
(636.302 1.57574e-14 -1.58752e-14)
(640.389 -7.66103e-15 7.83805e-15)
(646.355 -3.37383e-15 3.05984e-15)
(650.509 1.06161e-14 -1.02453e-14)
(656.76 -2.41272e-15 2.41272e-15)
(660.983 8.86999e-15 -8.86999e-15)
(667.504 5.00125e-15 -5.00125e-15)
(671.814 -5.58041e-15 5.58041e-15)
(678.553 1.30632e-14 -1.30632e-14)
(682.989 -2.64074e-14 2.64074e-14)
(689.846 -2.24382e-14 2.24382e-14)
(694.474 -3.27788e-14 3.27788e-14)
(701.315 -2.88478e-14 2.88478e-14)
(706.255 -3.43342e-14 3.43342e-14)
(713.049 -1.15304e-14 1.15304e-14)
(718.362 -4.01283e-14 4.01283e-14)
(725.101 -5.69651e-15 5.69651e-15)
(730.786 -3.95047e-14 3.95047e-14)
(737.415 -9.3677e-15 9.3677e-15)
(743.589 -2.35677e-14 2.35677e-14)
(750.23 -3.75165e-15 3.75165e-15)
(756.87 -1.75935e-14 1.75935e-14)
(763.678 -2.09522e-14 2.09522e-14)
(770.569 -9.45168e-15 9.45168e-15)
(777.569 -1.35744e-14 1.35744e-14)
(784.709 -2.54842e-14 2.54842e-14)
(792.199 -1.341e-14 1.341e-14)
(800.817 -1.78745e-14 1.78745e-14)
(812.731 -1.4105e-14 1.4105e-14)
(821.104 -1.06172e-14 1.06172e-14)
(819.057 -7.82724e-15 7.82724e-15)
(799.875 -4.28249e-15 4.28249e-15)
(722.603 -3.0836e-15 3.0836e-15)
(454.886 -8.46366e-15 8.46366e-15)
(82.6149 -2.64834e-14 2.64834e-14)
(5.49609 -2.45663e-14 2.45663e-14)
(0.289139 -1.37906e-14 1.37906e-14)
(0.0150304 2.07423e-14 -2.07423e-14)
(0.000779036 3.22519e-14 -3.22519e-14)
(4.02249e-05 2.62139e-14 -2.62139e-14)
(2.06866e-06 9.09416e-15 -9.09416e-15)
(1.05937e-07 1.00126e-14 -1.00126e-14)
(5.38046e-09 1.13807e-14 -1.13807e-14)
(2.8528e-10 -5.30938e-15 5.30938e-15)
(2.75318e-11 -8.02135e-16 8.02135e-16)
(1.56635e-11 0 0)
(1.31514e-11 0 0)
(2.26358e-12 0 0)
(-3.63301e-11 0 0)
(-2.9074e-11 -2.25666e-15 2.25666e-15)
(-6.64933e-12 -7.74664e-15 7.74664e-15)
(-2.8159e-11 -1.50014e-14 1.50014e-14)
(-2.41433e-11 -9.01939e-15 9.01939e-15)
(-1.46327e-11 -1.7878e-15 1.7878e-15)
(-1.66778e-11 0 0)
(-1.03981e-11 0 0)
(1.25696e-11 3.91409e-15 -3.91409e-15)
(4.70775e-11 9.67726e-15 -9.67726e-15)
(5.80069e-11 2.34869e-14 -2.34869e-14)
(1.88674e-11 2.28697e-14 -2.28697e-14)
(-8.84671e-12 2.33107e-14 -2.33107e-14)
(-1.34397e-11 1.65631e-14 -1.65631e-14)
(-1.95843e-11 1.10869e-14 -1.10869e-14)
(-3.24666e-12 5.43705e-15 -5.43705e-15)
(-5.38868e-12 2.24757e-15 -2.24757e-15)
(4.41885e-12 0 0)
(1.65162e-12 0 0)
(-1.65266e-11 -1.85135e-15 1.85135e-15)
(-9.20462e-12 -6.69968e-15 6.69968e-15)
(-1.61887e-11 -1.65801e-14 1.65801e-14)
(1.837e-11 -6.53011e-15 6.53011e-15)
(3.00152e-11 -2.92675e-15 2.92675e-15)
(3.35975e-11 0 0)
(2.62187e-11 7.53668e-16 -7.53668e-16)
(6.42162e-13 4.89122e-15 -4.89122e-15)
(-1.55979e-11 9.28795e-15 -9.28795e-15)
(-1.25695e-11 1.26209e-14 -1.26209e-14)
(6.76883e-12 1.56946e-15 -1.56946e-15)
(-8.37639e-12 -7.0687e-15 7.0687e-15)
(-1.33321e-12 -7.29802e-15 7.29802e-15)
(2.8663e-11 -5.64569e-15 5.64569e-15)
(1.87201e-11 -5.68557e-15 5.68557e-15)
(-3.55911e-11 -7.66527e-15 7.66527e-15)
(-6.90878e-11 -2.56393e-15 2.56393e-15)
(-6.2542e-11 0 0)
(-3.91348e-11 -1.49423e-17 1.49423e-17)
(-1.99154e-11 -1.10876e-14 1.10876e-14)
(1.8624e-11 -1.05313e-15 1.05313e-15)
(1.31841e-11 1.22327e-15 -1.22327e-15)
(2.10067e-11 2.95635e-15 -2.95635e-15)
(4.12941e-11 -1.92888e-15 1.92888e-15)
(4.17258e-11 -2.23913e-16 2.23913e-16)
(2.24566e-11 0 0)
(1.86048e-11 -3.52363e-15 3.52363e-15)
(-3.86284e-12 -6.15235e-15 6.15235e-15)
(-2.86538e-11 -3.14945e-15 3.14945e-15)
(-1.75929e-11 -5.91976e-15 5.91976e-15)
(-3.90253e-12 0 0)
(1.98169e-11 3.79578e-15 -3.79578e-15)
(3.56951e-11 0 0)
(2.07186e-11 0 0)
(6.07691e-12 -4.00242e-15 4.00242e-15)
(-1.84253e-12 -1.34962e-14 1.34962e-14)
(-7.40439e-12 -1.34688e-14 1.34688e-14)
(6.37699e-11 -3.88066e-15 3.88066e-15)
(1.15072e-10 0 0)
(7.24015e-11 0 0)
(-1.93117e-11 0 0)
(-8.17265e-11 4.55352e-15 -4.55352e-15)
(-1.01581e-10 1.88186e-15 -1.88186e-15)
(-6.84094e-11 0 0)
(-5.40015e-11 -8.30412e-15 8.30412e-15)
(-4.14659e-11 -3.46252e-14 3.46252e-14)
(-6.98092e-12 -4.52107e-14 4.52107e-14)
(-1.93239e-11 -5.16415e-14 5.16415e-14)
(-5.90663e-11 -5.56992e-14 5.56992e-14)
(6.49932e-11 -4.02388e-14 4.02388e-14)
(7.12022e-11 -3.73823e-14 3.73823e-14)
(2.36797e-11 -3.14704e-14 3.14704e-14)
(-3.18902e-11 -1.95958e-14 1.95958e-14)
(-3.34846e-11 -5.7605e-15 5.7605e-15)
(-3.18772e-11 0 0)
(-2.7623e-11 3.97028e-15 -3.97028e-15)
(2.51827e-11 0 0)
(6.78236e-12 0 0)
(-2.58837e-11 -2.64919e-16 2.64919e-16)
(-1.93278e-11 -4.62886e-15 4.62886e-15)
(2.33845e-11 -1.23837e-14 1.23837e-14)
(1.4041e-11 -1.18837e-14 1.18837e-14)
(1.11024e-11 -2.94274e-15 2.94274e-15)
(2.85974e-11 0 0)
(4.4754e-11 0 0)
(5.14503e-11 0 0)
(2.72145e-11 0 0)
(-7.43719e-12 -9.92158e-18 9.92158e-18)
(-1.06563e-11 -2.74772e-15 2.74772e-15)
(-2.11294e-11 0 0)
(-2.10923e-11 5.6143e-16 -5.6143e-16)
(7.76058e-13 3.68382e-15 -3.68382e-15)
(1.05352e-11 2.27762e-15 -2.27762e-15)
(2.02388e-11 2.9293e-15 -2.9293e-15)
(2.35716e-11 -3.83403e-15 3.83403e-15)
(-2.56393e-12 -1.0913e-14 1.0913e-14)
(-1.58587e-11 -1.42399e-14 1.42399e-14)
(-1.27887e-11 -1.60092e-14 1.60092e-14)
(-1.88115e-11 -1.40995e-14 1.40995e-14)
(-1.4413e-11 -2.99502e-15 2.99502e-15)
(-3.18817e-12 0 0)
(8.62603e-12 8.95263e-16 -8.95263e-16)
(-1.36733e-11 -3.88585e-17 3.88585e-17)
(-3.58626e-11 -4.01898e-15 4.01898e-15)
(-2.36446e-11 -1.42847e-14 1.42847e-14)
(-6.56878e-12 -2.03967e-14 2.03967e-14)
(1.4539e-11 -1.94652e-14 1.94652e-14)
(2.15562e-11 -1.69222e-14 1.69222e-14)
(1.75997e-11 -1.17621e-14 1.17621e-14)
(3.4216e-11 -8.66935e-15 8.66935e-15)
(3.05116e-11 -9.33687e-15 9.33687e-15)
(7.11906e-12 -5.76863e-15 5.76863e-15)
(1.48593e-11 -6.09896e-15 6.09896e-15)
(1.328e-11 0 0)
(-6.32024e-12 2.40395e-15 -2.40395e-15)
(-3.13412e-11 0 0)
(-4.26324e-11 0 0)
(-2.91382e-11 -4.16642e-15 4.16642e-15)
(-1.54995e-11 -1.64098e-14 1.64098e-14)
(-2.05794e-11 -1.92371e-14 1.92371e-14)
(5.47144e-12 -2.254e-14 2.254e-14)
(1.42916e-11 -2.25932e-14 2.25932e-14)
(1.34628e-11 -1.9431e-14 1.9431e-14)
(2.56203e-11 -9.28789e-15 9.28789e-15)
(3.18237e-11 -1.46985e-15 1.46985e-15)
(2.0134e-11 0 0)
(-9.99303e-12 3.80623e-15 -3.80623e-15)
(-3.03943e-11 1.33235e-15 -1.33235e-15)
(-4.46064e-11 3.18484e-15 -3.18484e-15)
(-2.90881e-11 1.68418e-16 -1.68418e-16)
(7.12272e-12 0 0)
(-3.38344e-11 -2.65963e-15 2.65963e-15)
(-4.37156e-11 0 0)
(-2.60568e-11 0 0)
(-1.20441e-11 1.28673e-15 -1.28673e-15)
(5.08394e-11 7.66351e-15 -7.66351e-15)
(7.82591e-11 7.94089e-15 -7.94089e-15)
(5.77846e-11 4.15892e-15 -4.15892e-15)
(4.33438e-11 1.55137e-16 -1.55137e-16)
(3.28657e-11 0 0)
(-2.04599e-11 5.01115e-15 -5.01115e-15)
(-1.06139e-11 1.87085e-16 -1.87085e-16)
(-3.73366e-12 0 0)
(-3.54235e-11 0 0)
(-2.94801e-11 0 0)
(2.27705e-11 0 0)
(2.128e-11 0 0)
(-1.73158e-11 0 0)
(-5.62058e-11 0 0)
(7.41638e-11 8.78796e-15 -8.78796e-15)
(8.70932e-11 2.02767e-14 -2.02767e-14)
(5.02106e-11 2.95342e-14 -2.95342e-14)
(4.09291e-11 4.09092e-14 -4.09092e-14)
(5.37107e-11 4.57455e-14 -4.57455e-14)
(-6.19858e-11 7.63783e-15 -7.63783e-15)
(-6.82498e-11 4.07346e-15 -4.07346e-15)
(-6.14005e-11 -5.98772e-16 5.98772e-16)
(-5.12537e-11 0 0)
(-5.22084e-11 0 0)
(-3.79736e-11 0 0)
(-2.05672e-11 0 0)
(-3.45397e-11 0 0)
(-2.11329e-11 0 0)
(2.48898e-11 0 0)
(2.90436e-11 -1.29453e-16 1.29453e-16)
(5.86911e-12 -1.10511e-15 1.10511e-15)
(-1.45297e-11 2.10459e-15 -2.10459e-15)
(-2.37506e-11 0 0)
(-1.90332e-11 -3.36165e-15 3.36165e-15)
(1.87732e-12 -6.06425e-15 6.06425e-15)
(3.13586e-11 -5.00263e-15 5.00263e-15)
(3.65051e-11 -7.43122e-15 7.43122e-15)
(2.16125e-12 -6.138e-15 6.138e-15)
(-1.74461e-11 -7.79382e-15 7.79382e-15)
(2.16342e-11 -4.42672e-15 4.42672e-15)
(5.074e-11 -4.02206e-15 4.02206e-15)
(3.60865e-11 5.74481e-16 -5.74481e-16)
(1.82159e-11 1.3425e-15 -1.3425e-15)
(2.01294e-11 3.32136e-15 -3.32136e-15)
(2.62111e-11 1.43389e-15 -1.43389e-15)
(-8.32046e-13 2.34402e-15 -2.34402e-15)
(-2.87585e-11 8.49637e-16 -8.49637e-16)
(-1.28532e-12 9.36802e-16 -9.36802e-16)
(3.58385e-11 -1.83968e-15 1.83968e-15)
(3.92043e-11 -2.07253e-15 2.07253e-15)
(2.12899e-11 -4.02665e-15 4.02665e-15)
(-1.42478e-11 -9.69837e-15 9.69837e-15)
(-2.83385e-11 -1.43917e-14 1.43917e-14)
(-1.52992e-11 -1.20907e-14 1.20907e-14)
(-4.67339e-11 -2.85812e-15 2.85812e-15)
(-2.67523e-11 8.89901e-15 -8.89901e-15)
(-6.71593e-12 1.43371e-14 -1.43371e-14)
(-5.55831e-11 1.02237e-14 -1.02237e-14)
(-2.36169e-11 7.95122e-15 -7.95122e-15)
(2.34991e-11 7.16585e-15 -7.16585e-15)
(-3.12632e-13 9.02789e-15 -9.02789e-15)
(-2.46737e-11 1.12867e-14 -1.12867e-14)
(-3.38066e-12 6.838e-15 -6.838e-15)
(1.73125e-11 1.86853e-16 -1.86853e-16)
(7.37165e-12 -6.80882e-15 6.80882e-15)
(8.23815e-12 -7.16475e-15 7.16475e-15)
(-4.91219e-12 -7.87316e-15 7.87316e-15)
(-1.07093e-11 -1.27027e-14 1.27027e-14)
(1.52963e-11 -1.73896e-14 1.73896e-14)
(1.24422e-11 -2.24497e-14 2.24497e-14)
(1.62063e-11 -2.9635e-14 2.9635e-14)
(-5.20965e-12 -3.45162e-14 3.45162e-14)
(-2.01075e-11 -3.58796e-14 3.58796e-14)
(-1.8032e-11 -3.05545e-14 3.05545e-14)
(-5.68904e-12 -2.02764e-14 2.02764e-14)
(1.69483e-11 -1.33754e-14 1.33754e-14)
(1.43508e-11 -8.60344e-15 8.60344e-15)
(2.64166e-11 -2.63831e-15 2.63831e-15)
(3.36518e-11 0 0)
(1.92732e-11 0 0)
(-1.39007e-11 0 0)
(-4.77128e-11 0 0)
(-4.68895e-11 0 0)
(4.38557e-11 1.54762e-15 -1.54762e-15)
(2.00762e-11 3.15828e-15 -3.15828e-15)
(1.57325e-11 -6.20455e-15 6.20455e-15)
(2.17256e-11 -1.22818e-14 1.22818e-14)
(1.39178e-11 -1.23422e-14 1.23422e-14)
(3.75984e-12 -1.54581e-14 1.54581e-14)
(-5.12454e-12 -6.63646e-15 6.63646e-15)
(-9.55039e-12 1.22612e-15 -1.22612e-15)
(-3.61392e-11 6.3177e-15 -6.3177e-15)
(-4.45775e-11 1.57056e-15 -1.57056e-15)
(-3.58806e-12 0 0)
(4.93979e-11 0 0)
(6.04843e-11 -8.5498e-16 8.5498e-16)
(1.71882e-11 -3.2106e-15 3.2106e-15)
(-2.31301e-11 -7.50566e-15 7.50566e-15)
(-2.52345e-11 -2.80868e-15 2.80868e-15)
(-2.28844e-11 -6.82183e-15 6.82183e-15)
(-2.00553e-11 -2.1505e-14 2.1505e-14)
(-1.39776e-11 -2.55947e-14 2.55947e-14)
(-2.40743e-11 -2.75847e-14 2.75847e-14)
(-3.45203e-11 -2.52859e-14 2.52859e-14)
(-1.4681e-11 -2.0145e-14 2.0145e-14)
(-1.47406e-11 -1.34971e-14 1.34971e-14)
(5.81744e-12 -9.95904e-15 9.95904e-15)
(2.9474e-11 -8.11572e-15 8.11572e-15)
(2.15827e-11 -8.11731e-15 8.11731e-15)
(7.05731e-11 -1.07082e-14 1.07082e-14)
(8.73397e-11 -3.42474e-15 3.42474e-15)
(7.36257e-11 -1.60937e-15 1.60937e-15)
)
;

boundaryField
{
    wedge0
    {
        type            wedge;
    }
    wedge1
    {
        type            wedge;
    }
    wedge2
    {
        type            wedge;
    }
    wedge3
    {
        type            wedge;
    }
    outlet
    {
        type            zeroGradient;
    }
    defaultFaces
    {
        type            empty;
    }
}


// ************************************************************************* //
