/*--------------------------------*- C++ -*----------------------------------*\
| =========                 |                                                 |
| \\      /  F ield         | OpenFOAM: The Open Source CFD Toolbox           |
|  \\    /   O peration     | Version:  2312                                  |
|   \\  /    A nd           | Website:  www.openfoam.com                      |
|    \\/     M anipulation  |                                                 |
\*---------------------------------------------------------------------------*/
FoamFile
{
    version     2.0;
    format      ascii;
    arch        "LSB;label=32;scalar=64";
    class       volScalarField;
    location    "0.006";
    object      p;
}
// * * * * * * * * * * * * * * * * * * * * * * * * * * * * * * * * * * * * * //

dimensions      [1 -1 -2 0 0 0 0];

internalField   nonuniform List<scalar> 
100
(
100207
100207
100207
100207
100207
100207
100207
100207
100207
100207
100207
100206
100206
100204
100200
100191
100173
100139
100076
99964.8
99778.3
99480.7
99029.1
98376.7
97478.6
96298.3
94812.9
93017
90922.3
88555.8
85954.8
83162.8
80225
77184.8
74081.9
70952
67821.2
64730.6
61641.7
58757.7
55591
53282.9
49742.8
48108.8
44779.5
42801.6
40482.8
38359.7
36377.3
34571.3
32962.5
31602.4
30535.2
29725
29116.9
28726.8
28587.5
28641.5
28718.2
28670.5
28519.7
28365.5
28281.3
28295.8
28389.1
28502.7
28592.2
28641.4
28650.3
28633
28605.8
28580.3
28561
28546.5
28531
28509.2
28488.6
28508.4
28638.9
28884.1
28895
27686
24237.6
19082.7
14382.1
11628.3
10514.7
10160.1
10058.8
10031
10023.4
10021.4
10020.9
10020.7
10020.7
10020.7
10020.7
10020.7
10020.7
10020.7
)
;

boundaryField
{
    sides
    {
        type            zeroGradient;
    }
    empty
    {
        type            empty;
    }
}


// ************************************************************************* //
