/*--------------------------------*- C++ -*----------------------------------*\
| =========                 |                                                 |
| \\      /  F ield         | OpenFOAM: The Open Source CFD Toolbox           |
|  \\    /   O peration     | Version:  2312                                  |
|   \\  /    A nd           | Website:  www.openfoam.com                      |
|    \\/     M anipulation  |                                                 |
\*---------------------------------------------------------------------------*/
FoamFile
{
    version     2.0;
    format      ascii;
    arch        "LSB;label=32;scalar=64";
    class       volScalarField;
    location    "0.006";
    object      T;
}
// * * * * * * * * * * * * * * * * * * * * * * * * * * * * * * * * * * * * * //

dimensions      [0 0 0 1 0 0 0];

internalField   nonuniform List<scalar> 
100
(
300
300
300
300
300
300
300
300
300
300
300
300
299.999
299.998
299.995
299.989
299.977
299.954
299.909
299.83
299.695
299.477
299.14
298.644
297.948
297.014
295.814
294.329
292.555
290.498
288.177
285.614
282.838
279.877
276.759
273.513
270.15
266.747
263.1
259.987
255.215
254.148
246.215
247.955
240.07
237.948
234.813
231.57
227.803
224.09
220.997
218.96
217.899
216.558
213.703
210.572
210.335
214.134
218.646
218.761
213.132
206.14
204.227
211.818
230.145
257.666
290.755
324.677
354.994
378.873
395.602
406.138
412.173
415.341
416.85
417.475
417.737
418.085
418.843
419.537
417.607
408.032
386.746
356.438
327.641
310.047
303.008
300.837
300.228
300.061
300.016
300.004
300.001
300
300
300
300
300
300
300
)
;

boundaryField
{
    sides
    {
        type            zeroGradient;
    }
    empty
    {
        type            empty;
    }
}


// ************************************************************************* //
