/*--------------------------------*- C++ -*----------------------------------*\
| =========                 |                                                 |
| \\      /  F ield         | OpenFOAM: The Open Source CFD Toolbox           |
|  \\    /   O peration     | Version:  2312                                  |
|   \\  /    A nd           | Website:  www.openfoam.com                      |
|    \\/     M anipulation  |                                                 |
\*---------------------------------------------------------------------------*/
FoamFile
{
    version     2.0;
    format      ascii;
    arch        "LSB;label=32;scalar=64";
    class       volScalarField;
    location    "0.006";
    object      thermo:e;
}
// * * * * * * * * * * * * * * * * * * * * * * * * * * * * * * * * * * * * * //

dimensions      [0 2 -2 0 0 0 0];

internalField   nonuniform List<scalar> 
100
(
215760
215760
215760
215760
215760
215760
215760
215760
215760
215760
215760
215760
215759
215759
215757
215752
215744
215727
215695
215638
215541
215384
215141
214784
214284
213613
212750
211682
210405
208926
207257
205414
203417
201288
199045
196711
194292
191845
189221
186983
183551
182783
177078
178330
172658
171132
168877
166545
163836
161165
158941
157476
156713
155748
153695
151443
151273
154005
157250
157333
153285
148256
146880
152339
165520
185314
209111
233508
255312
272486
284517
292095
296435
298713
299798
300248
300436
300687
301232
301731
300343
293457
278148
256350
235639
222986
217924
216362
215924
215804
215772
215763
215761
215760
215760
215760
215760
215760
215760
215760
)
;

boundaryField
{
    sides
    {
        type            zeroGradient;
    }
    empty
    {
        type            empty;
    }
}


// ************************************************************************* //
