/*--------------------------------*- C++ -*----------------------------------*\
| =========                 |                                                 |
| \\      /  F ield         | OpenFOAM: The Open Source CFD Toolbox           |
|  \\    /   O peration     | Version:  2312                                  |
|   \\  /    A nd           | Website:  www.openfoam.com                      |
|    \\/     M anipulation  |                                                 |
\*---------------------------------------------------------------------------*/
FoamFile
{
    version     2.0;
    format      ascii;
    arch        "LSB;label=32;scalar=64";
    class       volScalarField;
    location    "0.039";
    object      p;
}
// * * * * * * * * * * * * * * * * * * * * * * * * * * * * * * * * * * * * * //

dimensions      [1 -1 -2 0 0 0 0];

internalField   nonuniform List<scalar> 
100
(
38999.4
39023
38472.1
38476.3
37940.5
37899.5
37433.8
37308.7
36928.1
36726
36407.5
36159.4
35871.7
35604.8
35328.1
35056.2
34782.9
34510.7
34239
33968.1
33698.1
33429
33161.3
32894.3
32629.6
32364.6
32104.5
31840.1
31588.1
31320.4
31083.8
30804
30596.1
30289.6
30129.1
29778.1
29683.3
29276.1
29253.8
28796.7
28830.7
28356.6
28405
27969.3
27974.9
27641.6
27545
27377.7
27121.4
27184.2
26707.7
27068.8
26309.5
27031
25944.8
27049.8
25649.5
27081.6
25468.9
27075
25435.4
26996
25545.8
26849.6
25753.4
26679.5
25986.5
26541.9
26184.1
26471.1
26323.4
26465.8
26418.4
26504.5
26499.2
26573
26597.3
26686.9
26765.3
26932.5
27169.3
27606.8
28291.2
29346.9
30715.2
32290.7
33806.5
35108.2
36070.8
36750.4
37173.3
37454
37611.4
37728.2
37788.4
37849
37879.1
37923.2
37946.1
37981.1
)
;

boundaryField
{
    sides
    {
        type            zeroGradient;
    }
    empty
    {
        type            empty;
    }
}


// ************************************************************************* //
