/*--------------------------------*- C++ -*----------------------------------*\
| =========                 |                                                 |
| \\      /  F ield         | OpenFOAM: The Open Source CFD Toolbox           |
|  \\    /   O peration     | Version:  2312                                  |
|   \\  /    A nd           | Website:  www.openfoam.com                      |
|    \\/     M anipulation  |                                                 |
\*---------------------------------------------------------------------------*/
FoamFile
{
    version     2.0;
    format      ascii;
    arch        "LSB;label=32;scalar=64";
    class       volScalarField;
    location    "0.039";
    object      rho;
}
// * * * * * * * * * * * * * * * * * * * * * * * * * * * * * * * * * * * * * //

dimensions      [1 -3 0 0 0 0 0];

internalField   nonuniform List<scalar> 
100
(
0.554553
0.551398
0.548357
0.545443
0.542708
0.540233
0.537699
0.535508
0.533143
0.531069
0.52885
0.526801
0.524683
0.522637
0.520574
0.518539
0.516508
0.514493
0.512491
0.510507
0.508544
0.506605
0.504694
0.502815
0.500969
0.499158
0.497375
0.495628
0.493887
0.492184
0.49044
0.488753
0.486949
0.485249
0.483331
0.481595
0.479543
0.477742
0.475593
0.473688
0.471531
0.469487
0.467434
0.46525
0.463392
0.461113
0.459512
0.457205
0.455926
0.45364
0.452763
0.450528
0.450111
0.447996
0.447993
0.44616
0.446375
0.44508
0.445206
0.444696
0.444455
0.444819
0.444129
0.445193
0.444237
0.445608
0.444721
0.445984
0.445444
0.446372
0.446245
0.446862
0.447042
0.447522
0.447893
0.448434
0.44903
0.449893
0.451097
0.453037
0.45624
0.461672
0.470443
0.48331
0.499743
0.517723
0.53461
0.548467
0.558646
0.56552
0.56991
0.572636
0.574319
0.575372
0.576066
0.576569
0.576965
0.577302
0.577609
0.577823
)
;

boundaryField
{
    sides
    {
        type            zeroGradient;
    }
    empty
    {
        type            empty;
    }
}


// ************************************************************************* //
