/*--------------------------------*- C++ -*----------------------------------*\
| =========                 |                                                 |
| \\      /  F ield         | OpenFOAM: The Open Source CFD Toolbox           |
|  \\    /   O peration     | Version:  2312                                  |
|   \\  /    A nd           | Website:  www.openfoam.com                      |
|    \\/     M anipulation  |                                                 |
\*---------------------------------------------------------------------------*/
FoamFile
{
    version     2.0;
    format      ascii;
    arch        "LSB;label=32;scalar=64";
    class       volScalarField;
    location    "0.039";
    object      T;
}
// * * * * * * * * * * * * * * * * * * * * * * * * * * * * * * * * * * * * * //

dimensions      [0 0 0 1 0 0 0];

internalField   nonuniform List<scalar> 
100
(
244.443
245.99
243.863
245.192
242.997
243.846
241.985
242.162
240.756
240.373
239.288
238.582
237.639
236.794
235.885
234.988
234.073
233.151
232.219
231.277
230.325
229.36
228.384
227.392
226.394
225.369
224.36
223.296
222.31
221.189
220.299
219.069
218.397
216.966
216.673
214.921
215.153
213.001
213.802
211.307
212.524
209.939
211.221
208.957
209.837
208.362
208.357
208.137
206.767
208.29
205.035
208.839
203.169
209.726
201.299
210.735
199.729
211.495
198.844
211.626
198.918
210.95
199.928
209.63
201.504
208.108
203.106
206.86
204.319
206.128
205.037
205.861
205.41
205.858
205.646
205.971
205.885
206.183
206.236
206.636
206.99
207.848
209.03
211.057
213.634
216.792
219.799
222.496
224.431
225.88
226.719
227.344
227.63
227.919
228.008
228.174
228.199
228.331
228.348
228.473
)
;

boundaryField
{
    sides
    {
        type            zeroGradient;
    }
    empty
    {
        type            empty;
    }
}


// ************************************************************************* //
