/*--------------------------------*- C++ -*----------------------------------*\
| =========                 |                                                 |
| \\      /  F ield         | OpenFOAM: The Open Source CFD Toolbox           |
|  \\    /   O peration     | Version:  2312                                  |
|   \\  /    A nd           | Website:  www.openfoam.com                      |
|    \\/     M anipulation  |                                                 |
\*---------------------------------------------------------------------------*/
FoamFile
{
    version     2.0;
    format      ascii;
    arch        "LSB;label=32;scalar=64";
    class       volScalarField;
    location    "0.039";
    object      thermo:e;
}
// * * * * * * * * * * * * * * * * * * * * * * * * * * * * * * * * * * * * * //

dimensions      [0 2 -2 0 0 0 0];

internalField   nonuniform List<scalar> 
100
(
175803
176916
175386
176342
174763
175374
174036
174163
173152
172876
172096
171588
170910
170302
169649
169004
168345
167682
167012
166335
165650
164956
164254
163540
162822
162086
161360
160595
159886
159079
158439
157555
157071
156042
155831
154571
154738
153190
153766
151972
152847
150988
151910
150282
150915
149854
149851
149692
148707
149802
147461
150197
146119
150835
144775
151561
143645
152107
143009
152201
143062
151715
143788
150766
144922
149671
146074
148773
146946
148248
147462
148055
147731
148053
147901
148134
148073
148287
148325
148613
148867
149485
150334
151792
153645
155917
158080
160019
161411
162453
163057
163506
163712
163919
163983
164103
164121
164216
164228
164318
)
;

boundaryField
{
    sides
    {
        type            zeroGradient;
    }
    empty
    {
        type            empty;
    }
}


// ************************************************************************* //
