/*--------------------------------*- C++ -*----------------------------------*\
| =========                 |                                                 |
| \\      /  F ield         | OpenFOAM: The Open Source CFD Toolbox           |
|  \\    /   O peration     | Version:  2312                                  |
|   \\  /    A nd           | Website:  www.openfoam.com                      |
|    \\/     M anipulation  |                                                 |
\*---------------------------------------------------------------------------*/
FoamFile
{
    version     2.0;
    format      ascii;
    arch        "LSB;label=32;scalar=64";
    class       volVectorField;
    location    "0.039";
    object      U;
}
// * * * * * * * * * * * * * * * * * * * * * * * * * * * * * * * * * * * * * //

dimensions      [0 1 -1 0 0 0 0];

internalField   nonuniform List<vector> 
100
(
(152.26 0 0)
(154.645 0 0)
(157.071 0 0)
(159.483 0 0)
(161.976 0 0)
(164.271 0 0)
(166.79 0 0)
(169.033 0 0)
(171.508 0 0)
(173.76 0 0)
(176.158 0 0)
(178.433 0 0)
(180.765 0 0)
(183.046 0 0)
(185.337 0 0)
(187.608 0 0)
(189.873 0 0)
(192.127 0 0)
(194.373 0 0)
(196.61 0 0)
(198.839 0 0)
(201.059 0 0)
(203.271 0 0)
(205.473 0 0)
(207.669 0 0)
(209.851 0 0)
(212.03 0 0)
(214.186 0 0)
(216.349 0 0)
(218.468 0 0)
(220.621 0 0)
(222.689 0 0)
(224.839 0 0)
(226.843 0 0)
(228.994 0 0)
(230.929 0 0)
(233.067 0 0)
(234.951 0 0)
(237.036 0 0)
(238.905 0 0)
(240.878 0 0)
(242.771 0 0)
(244.578 0 0)
(246.508 0 0)
(248.116 0 0)
(250.069 0 0)
(251.458 0 0)
(253.409 0 0)
(254.552 0 0)
(256.484 0 0)
(257.341 0 0)
(259.238 0 0)
(259.793 0 0)
(261.597 0 0)
(261.91 0 0)
(263.491 0 0)
(263.718 0 0)
(264.895 0 0)
(265.245 0 0)
(265.867 0 0)
(266.501 0 0)
(266.544 0 0)
(267.475 0 0)
(267.094 0 0)
(268.169 0 0)
(267.644 0 0)
(268.632 0 0)
(268.226 0 0)
(268.964 0 0)
(268.797 0 0)
(269.269 0 0)
(269.3 0 0)
(269.588 0 0)
(269.698 0 0)
(269.872 0 0)
(269.935 0 0)
(269.955 0 0)
(269.79 0 0)
(269.378 0 0)
(268.447 0 0)
(266.637 0 0)
(263.347 0 0)
(257.982 0 0)
(250.293 0 0)
(240.855 0 0)
(230.977 0 0)
(222.105 0 0)
(215.143 0 0)
(210.27 0 0)
(207.183 0 0)
(205.401 0 0)
(204.481 0 0)
(204.091 0 0)
(204.017 0 0)
(204.126 0 0)
(204.331 0 0)
(204.589 0 0)
(204.872 0 0)
(205.173 0 0)
(205.413 0 0)
)
;

boundaryField
{
    sides
    {
        type            mywaveTransmissive;
        gamma           1.4;
        value           nonuniform List<vector> 2((205.526 0 0) (151.883 0 0));
    }
    empty
    {
        type            empty;
    }
}


// ************************************************************************* //
