0.005 	1.39262e+08 	4885.08
0.015 	1.36893e+08 	4862.28
0.025 	1.34547e+08 	4839.42
0.035 	1.32223e+08 	4816.5
0.045 	1.29921e+08 	4793.53
0.055 	1.27642e+08 	4770.51
0.065 	1.25386e+08 	4747.43
0.075 	1.23153e+08 	4724.3
0.085 	1.20944e+08 	4701.12
0.095 	1.18758e+08 	4677.9
0.105 	1.16596e+08 	4654.63
0.115 	1.14457e+08 	4631.33
0.125 	1.12343e+08 	4607.98
0.135 	1.10252e+08 	4584.59
0.145 	1.08186e+08 	4561.16
0.155 	1.06145e+08 	4537.7
0.165 	1.04127e+08 	4514.21
0.175 	1.02134e+08 	4490.68
0.185 	1.00166e+08 	4467.12
0.195 	9.82223e+07 	4443.54
0.205 	9.63032e+07 	4419.92
0.215 	9.44088e+07 	4396.29
0.225 	9.25391e+07 	4372.63
0.235 	9.06941e+07 	4348.94
0.245 	8.88738e+07 	4325.24
0.255 	8.70782e+07 	4301.52
0.265 	8.53072e+07 	4277.79
0.275 	8.3561e+07 	4254.03
0.285 	8.18393e+07 	4230.27
0.295 	8.01422e+07 	4206.49
0.305 	7.84696e+07 	4182.71
0.315 	7.68214e+07 	4158.91
0.325 	7.51976e+07 	4135.11
0.335 	7.35981e+07 	4111.3
0.345 	7.20227e+07 	4087.49
0.355 	7.04715e+07 	4063.68
0.365 	6.89442e+07 	4039.86
0.375 	6.74408e+07 	4016.05
0.385 	6.59612e+07 	3992.24
0.395 	6.45051e+07 	3968.43
0.405 	6.30726e+07 	3944.63
0.415 	6.16635e+07 	3920.84
0.425 	6.02775e+07 	3897.05
0.435 	5.89146e+07 	3873.27
0.445 	5.75746e+07 	3849.51
0.455 	5.62573e+07 	3825.76
0.465 	5.49626e+07 	3802.02
0.475 	5.36903e+07 	3778.3
0.485 	5.24402e+07 	3754.59
0.495 	5.12121e+07 	3730.91
0.505 	5.00059e+07 	3707.24
0.515 	4.88214e+07 	3683.6
0.525 	4.76583e+07 	3659.98
0.535 	4.65165e+07 	3636.38
0.545 	4.53957e+07 	3612.81
0.555 	4.42958e+07 	3589.27
0.565 	4.32165e+07 	3565.75
0.575 	4.21576e+07 	3542.26
0.585 	4.1119e+07 	3518.81
0.595 	4.01004e+07 	3495.38
0.605 	3.91015e+07 	3471.99
0.615 	3.81222e+07 	3448.64
0.625 	3.71622e+07 	3425.32
0.635 	3.62214e+07 	3402.04
0.645 	3.52994e+07 	3378.8
0.655 	3.4396e+07 	3355.59
0.665 	3.35111e+07 	3332.43
0.675 	3.26443e+07 	3309.31
0.685 	3.17955e+07 	3286.23
0.695 	3.09644e+07 	3263.2
0.705 	3.01507e+07 	3240.22
0.715 	2.93543e+07 	3217.28
0.725 	2.85749e+07 	3194.39
0.735 	2.78123e+07 	3171.54
0.745 	2.70661e+07 	3148.75
0.755 	2.63363e+07 	3126.01
0.765 	2.56225e+07 	3103.33
0.775 	2.49245e+07 	3080.7
0.785 	2.4242e+07 	3058.12
0.795 	2.35749e+07 	3035.6
0.805 	2.29229e+07 	3013.13
0.815 	2.22857e+07 	2990.73
0.825 	2.16631e+07 	2968.38
0.835 	2.1055e+07 	2946.09
0.845 	2.04609e+07 	2923.86
0.855 	1.98808e+07 	2901.7
0.865 	1.93143e+07 	2879.6
0.875 	1.87613e+07 	2857.57
0.885 	1.82215e+07 	2835.6
0.895 	1.76947e+07 	2813.7
0.905 	1.71806e+07 	2791.86
0.915 	1.66791e+07 	2770.09
0.925 	1.61898e+07 	2748.4
0.935 	1.57126e+07 	2726.77
0.945 	1.52473e+07 	2705.21
0.955 	1.47936e+07 	2683.72
0.965 	1.43513e+07 	2662.31
0.975 	1.39203e+07 	2640.97
0.985 	1.35002e+07 	2619.71
0.995 	1.30909e+07 	2598.52
1.005 	1.26921e+07 	2577.4
1.015 	1.23037e+07 	2556.37
1.025 	1.19254e+07 	2535.41
1.035 	1.1557e+07 	2514.53
1.045 	1.11984e+07 	2493.73
1.055 	1.08494e+07 	2473.01
1.065 	1.05096e+07 	2452.37
1.075 	1.0179e+07 	2431.81
1.085 	9.85737e+06 	2411.33
1.095 	9.54448e+06 	2390.94
1.105 	9.24015e+06 	2370.63
1.115 	8.9442e+06 	2350.4
1.125 	8.65645e+06 	2330.26
1.135 	8.37671e+06 	2310.21
1.145 	8.10481e+06 	2290.24
1.155 	7.84057e+06 	2270.36
1.165 	7.58382e+06 	2250.57
1.175 	7.33439e+06 	2230.86
1.185 	7.0921e+06 	2211.25
1.195 	6.85679e+06 	2191.73
1.205 	6.62829e+06 	2172.29
1.215 	6.40646e+06 	2152.95
1.225 	6.19111e+06 	2133.69
1.235 	5.98212e+06 	2114.53
1.245 	5.7793e+06 	2095.46
1.255 	5.58253e+06 	2076.49
1.265 	5.39164e+06 	2057.6
1.275 	5.2065e+06 	2038.82
1.285 	5.02695e+06 	2020.12
1.295 	4.85287e+06 	2001.52
1.305 	4.6841e+06 	1983.02
1.315 	4.52052e+06 	1964.61
1.325 	4.362e+06 	1946.3
1.335 	4.20839e+06 	1928.08
1.345 	4.05957e+06 	1909.96
1.355 	3.91543e+06 	1891.94
1.365 	3.77582e+06 	1874.02
1.375 	3.64064e+06 	1856.19
1.385 	3.50977e+06 	1838.46
1.395 	3.38308e+06 	1820.83
1.405 	3.26046e+06 	1803.3
1.415 	3.14181e+06 	1785.87
1.425 	3.02702e+06 	1768.54
1.435 	2.91597e+06 	1751.32
1.445 	2.80856e+06 	1734.19
1.455 	2.7047e+06 	1717.16
1.465 	2.60427e+06 	1700.23
1.475 	2.50719e+06 	1683.4
1.485 	2.41335e+06 	1666.68
1.495 	2.32267e+06 	1650.06
1.505 	2.23505e+06 	1633.53
1.515 	2.1504e+06 	1617.11
1.525 	2.06864e+06 	1600.8
1.535 	1.98968e+06 	1584.58
1.545 	1.91344e+06 	1568.47
1.555 	1.83983e+06 	1552.46
1.565 	1.76878e+06 	1536.55
1.575 	1.7002e+06 	1520.75
1.585 	1.63403e+06 	1505.05
1.595 	1.5702e+06 	1489.45
1.605 	1.50862e+06 	1473.96
1.615 	1.44923e+06 	1458.56
1.625 	1.39195e+06 	1443.28
1.635 	1.33674e+06 	1428.09
1.645 	1.28351e+06 	1413.01
1.655 	1.23221e+06 	1398.04
1.665 	1.18277e+06 	1383.16
1.675 	1.13514e+06 	1368.39
1.685 	1.08925e+06 	1353.73
1.695 	1.04506e+06 	1339.17
1.705 	1.0025e+06 	1324.71
1.715 	961521 	1310.35
1.725 	922072 	1296.1
1.735 	884102 	1281.96
1.745 	847561 	1267.91
1.755 	812402 	1253.97
1.765 	778578 	1240.14
1.775 	746043 	1226.4
1.785 	714755 	1212.77
1.795 	684670 	1199.25
1.805 	655746 	1185.82
1.815 	627945 	1172.5
1.825 	601226 	1159.28
1.835 	575553 	1146.17
1.845 	550888 	1133.15
1.855 	527195 	1120.24
1.865 	504441 	1107.43
1.875 	482591 	1094.73
1.885 	461614 	1082.12
1.895 	441478 	1069.62
1.905 	422152 	1057.22
1.915 	403608 	1044.92
1.925 	385816 	1032.72
1.935 	368749 	1020.62
1.945 	352380 	1008.62
1.955 	336683 	996.725
1.965 	321634 	984.928
1.975 	307208 	973.23
1.985 	293381 	961.632
1.995 	280131 	950.133
2.005 	267437 	938.733
2.015 	255276 	927.432
2.025 	243629 	916.229
2.035 	232475 	905.124
2.045 	221796 	894.117
2.055 	211573 	883.207
2.065 	201788 	872.395
2.075 	192425 	861.679
2.085 	183466 	851.06
2.095 	174896 	840.536
2.105 	166698 	830.109
2.115 	158860 	819.778
2.125 	151364 	809.541
2.135 	144199 	799.4
2.145 	137351 	789.352
2.155 	130806 	779.399
2.165 	124553 	769.539
2.175 	118579 	759.772
2.185 	112873 	750.098
2.195 	107425 	740.516
2.205 	102222 	731.027
2.215 	97255.1 	721.628
2.225 	92514.4 	712.321
2.235 	87990.3 	703.105
2.245 	83673.7 	693.978
2.255 	79555.6 	684.942
2.265 	75627.7 	675.995
2.275 	71881.9 	667.136
2.285 	68310.2 	658.367
2.295 	64905.3 	649.685
2.305 	61659.9 	641.091
2.315 	58567 	632.585
2.325 	55620.1 	624.165
2.335 	52812.6 	615.832
2.345 	50138.6 	607.584
2.355 	47592 	599.421
2.365 	45167.2 	591.343
2.375 	42858.8 	583.349
2.385 	40661.6 	575.439
2.395 	38570.7 	567.613
2.405 	36581.1 	559.869
2.415 	34688.4 	552.208
2.425 	32888.1 	544.628
2.435 	31176 	537.13
2.445 	29548.1 	529.712
2.455 	28000.6 	522.375
2.465 	26529.6 	515.118
2.475 	25131.7 	507.939
2.485 	23803.4 	500.841
2.495 	22541.6 	493.82
2.505 	21343.1 	486.877
2.515 	20204.9 	480.011
2.525 	19124.2 	473.222
2.535 	18098.2 	466.509
2.545 	17124.4 	459.872
2.555 	16200.3 	453.31
2.565 	15323.4 	446.823
2.575 	14491.6 	440.409
2.585 	13702.6 	434.07
2.595 	12954.4 	427.803
2.605 	12244.9 	421.608
2.615 	11572.4 	415.486
2.625 	10934.9 	409.435
2.635 	10330.8 	403.455
2.645 	9758.47 	397.545
2.655 	9216.25 	391.705
2.665 	8702.68 	385.935
2.675 	8216.33 	380.233
2.685 	7755.85 	374.599
2.695 	7319.93 	369.033
2.705 	6907.34 	363.535
2.715 	6516.89 	358.102
2.725 	6147.47 	352.736
2.735 	5798 	347.435
2.745 	5467.47 	342.2
2.755 	5154.9 	337.028
2.765 	4859.37 	331.921
2.775 	4580.01 	326.877
2.785 	4315.96 	321.895
2.795 	4066.45 	316.976
2.805 	3830.7 	312.119
2.815 	3608.01 	307.322
2.825 	3397.68 	302.587
2.835 	3199.06 	297.912
2.845 	3011.54 	293.296
2.855 	2834.53 	288.74
2.865 	2667.46 	284.242
2.875 	2509.81 	279.801
2.885 	2361.07 	275.419
2.895 	2220.76 	271.093
2.905 	2088.43 	266.824
2.915 	1963.66 	262.61
2.925 	1846.01 	258.452
2.935 	1735.12 	254.349
2.945 	1630.61 	250.299
2.955 	1532.13 	246.304
2.965 	1439.35 	242.362
2.975 	1351.96 	238.473
2.985 	1269.65 	234.636
2.995 	1192.15 	230.851
3.005 	1119.18 	227.117
3.015 	1050.5 	223.434
3.025 	985.866 	219.8
3.035 	925.047 	216.217
3.045 	867.831 	212.683
3.055 	814.012 	209.197
3.065 	763.399 	205.76
3.075 	715.809 	202.37
3.085 	671.07 	199.027
3.095 	629.018 	195.731
3.105 	589.499 	192.481
3.115 	552.366 	189.277
3.125 	517.484 	186.119
3.135 	484.719 	183.005
3.145 	453.951 	179.935
3.155 	425.062 	176.909
3.165 	397.942 	173.926
3.175 	372.487 	170.986
3.185 	348.601 	168.089
3.195 	326.189 	165.233
3.205 	305.165 	162.419
3.215 	285.446 	159.646
3.225 	266.955 	156.913
3.235 	249.619 	154.22
3.245 	233.367 	151.567
3.255 	218.136 	148.953
3.265 	203.863 	146.377
3.275 	190.491 	143.84
3.285 	177.965 	141.341
3.295 	166.233 	138.879
3.305 	155.248 	136.454
3.315 	144.963 	134.065
3.325 	135.336 	131.712
3.335 	126.326 	129.395
3.345 	117.896 	127.114
3.355 	110.009 	124.866
3.365 	102.631 	122.654
3.375 	95.7315 	120.475
3.385 	89.2802 	118.329
3.395 	83.249 	116.217
3.405 	77.6116 	114.138
3.415 	72.3433 	112.09
3.425 	67.4208 	110.075
3.435 	62.8222 	108.091
3.445 	58.5269 	106.138
3.455 	54.5158 	104.216
3.465 	50.7707 	102.324
3.475 	47.2745 	100.463
3.485 	44.0113 	98.6301
3.495 	40.9662 	96.8269
3.505 	38.1251 	95.0524
3.515 	35.4747 	93.3064
3.525 	33.0028 	91.5883
3.535 	30.6978 	89.898
3.545 	28.5487 	88.2349
3.555 	26.5453 	86.5988
3.565 	24.6782 	84.9893
3.575 	22.9384 	83.4061
3.585 	21.3175 	81.8487
3.595 	19.8076 	80.3169
3.605 	18.4014 	78.8102
3.615 	17.0921 	77.3284
3.625 	15.8731 	75.871
3.635 	14.7384 	74.4379
3.645 	13.6824 	73.0285
3.655 	12.6999 	71.6427
3.665 	11.7858 	70.2801
3.675 	10.9355 	68.9403
3.685 	10.1449 	67.6231
3.695 	9.40968 	66.3282
3.705 	8.72623 	65.0551
3.715 	8.09099 	63.8037
3.725 	7.50066 	62.5736
3.735 	6.95217 	61.3644
3.745 	6.44265 	60.176
3.755 	5.96942 	59.0079
3.765 	5.52996 	57.86
3.775 	5.12195 	56.7318
3.785 	4.7432 	55.6232
3.795 	4.39168 	54.5338
3.805 	4.06548 	53.4634
3.815 	3.76285 	52.4117
3.825 	3.48213 	51.3784
3.835 	3.22178 	50.3632
3.845 	2.98036 	49.3659
3.855 	2.75654 	48.3862
3.865 	2.54908 	47.4239
3.875 	2.35682 	46.4786
3.885 	2.17866 	45.5501
3.895 	2.01362 	44.6382
3.905 	1.86075 	43.7425
3.915 	1.71918 	42.863
3.925 	1.58809 	41.9992
3.935 	1.46674 	41.1511
3.945 	1.35442 	40.3183
3.955 	1.25048 	39.5006
3.965 	1.15431 	38.6977
3.975 	1.06535 	37.9095
3.985 	0.983067 	37.1357
3.995 	0.906978 	36.376
4.005 	0.836629 	35.6303
4.015 	0.771599 	34.8983
4.025 	0.711496 	34.1798
4.035 	0.655958 	33.4747
4.045 	0.604648 	32.7826
4.055 	0.557251 	32.1034
4.065 	0.513478 	31.4369
4.075 	0.473059 	30.7828
4.085 	0.435744 	30.141
4.095 	0.4013 	29.5113
4.105 	0.369513 	28.8934
4.115 	0.340183 	28.2872
4.125 	0.313125 	27.6925
4.135 	0.288168 	27.1091
4.145 	0.265152 	26.5368
4.155 	0.243931 	25.9754
4.165 	0.224368 	25.4247
4.175 	0.206337 	24.8846
4.185 	0.189721 	24.3549
4.195 	0.174412 	23.8354
4.205 	0.16031 	23.326
4.215 	0.147321 	22.8264
4.225 	0.135361 	22.3365
4.235 	0.124349 	21.8561
4.245 	0.114213 	21.3852
4.255 	0.104884 	20.9234
4.265 	0.0962996 	20.4707
4.275 	0.0884021 	20.0268
4.285 	0.0811377 	19.5918
4.295 	0.0744569 	19.1653
4.305 	0.0683139 	18.7473
4.315 	0.0626665 	18.3376
4.325 	0.0574756 	17.936
4.335 	0.0527053 	17.5424
4.345 	0.0483222 	17.1567
4.355 	0.0442956 	16.7787
4.365 	0.0405973 	16.4083
4.375 	0.037201 	16.0454
4.385 	0.0340828 	15.6898
4.395 	0.0312203 	15.3414
4.405 	0.0285931 	15
4.415 	0.0261822 	14.6656
4.425 	0.0239703 	14.338
4.435 	0.0219414 	14.0171
4.445 	0.0200805 	13.7028
4.455 	0.0183742 	13.3949
4.465 	0.0168098 	13.0933
4.475 	0.0153759 	12.798
4.485 	0.0140617 	12.5088
4.495 	0.0128576 	12.2255
4.505 	0.0117544 	11.9481
4.515 	0.010744 	11.6765
4.525 	0.00981862 	11.4106
4.535 	0.00897135 	11.1502
4.545 	0.00819572 	10.8952
4.555 	0.0074858 	10.6457
4.565 	0.00683613 	10.4013
4.575 	0.00624173 	10.1621
4.585 	0.00569798 	9.928
4.595 	0.00520066 	9.69882
4.605 	0.00474589 	9.47451
4.615 	0.00433011 	9.25497
4.625 	0.00395004 	9.04013
4.635 	0.00360268 	8.82987
4.645 	0.00328527 	8.62411
4.655 	0.00299529 	8.42277
4.665 	0.00273041 	8.22576
4.675 	0.00248851 	8.033
4.685 	0.00226763 	7.8444
4.695 	0.00206598 	7.65989
4.705 	0.00188192 	7.47937
4.715 	0.00171395 	7.30279
4.725 	0.00156069 	7.13005
4.735 	0.00142088 	6.9611
4.745 	0.00129336 	6.79584
4.755 	0.00117707 	6.63421
4.765 	0.00107105 	6.47613
4.775 	0.000974397 	6.32154
4.785 	0.000886308 	6.17036
4.795 	0.000806037 	6.02252
4.805 	0.000732903 	5.87797
4.815 	0.000666285 	5.73662
4.825 	0.000605614 	5.59843
4.835 	0.000550367 	5.46333
4.845 	0.000500071 	5.33125
4.855 	0.000454289 	5.20213
4.865 	0.000412624 	5.07592
4.875 	0.000374713 	4.95255
4.885 	0.000340224 	4.83196
4.895 	0.000308854 	4.7141
4.905 	0.000280326 	4.59891
4.915 	0.000254387 	4.48635
4.925 	0.000230808 	4.37634
4.935 	0.000209376 	4.26885
4.945 	0.0001899 	4.16383
4.955 	0.000172206 	4.06121
4.965 	0.000156132 	3.96095
4.975 	0.000141533 	3.863
4.985 	0.000128277 	3.76731
4.995 	0.000116241 	3.67383
5.005 	0.000105316 	3.58253
5.015 	9.54014e-05 	3.49335
5.025 	8.64048e-05 	3.40625
5.035 	7.82428e-05 	3.3212
5.045 	7.08394e-05 	3.23814
5.055 	6.41254e-05 	3.15703
5.065 	5.80377e-05 	3.07783
5.075 	5.25189e-05 	3.00051
5.085 	4.75167e-05 	2.92501
5.095 	4.29837e-05 	2.85132
5.105 	3.88765e-05 	2.77938
5.115 	3.51559e-05 	2.70917
5.125 	3.17861e-05 	2.64064
5.135 	2.87346e-05 	2.57377
5.145 	2.59718e-05 	2.50852
5.155 	2.34709e-05 	2.44485
5.165 	2.12074e-05 	2.38273
5.175 	1.91593e-05 	2.32214
5.185 	1.73063e-05 	2.26303
5.195 	1.56302e-05 	2.20539
5.205 	1.41144e-05 	2.14918
5.215 	1.27438e-05 	2.09437
5.225 	1.15047e-05 	2.04094
5.235 	1.03847e-05 	1.98887
5.245 	9.37255e-06 	1.93812
5.255 	8.45804e-06 	1.88867
5.265 	7.63189e-06 	1.8405
5.275 	6.8857e-06 	1.79358
5.285 	6.21187e-06 	1.7479
5.295 	5.60348e-06 	1.70343
5.305 	5.05429e-06 	1.66015
5.315 	4.55862e-06 	1.61804
5.325 	4.11134e-06 	1.57709
5.335 	3.7078e-06 	1.53728
5.345 	3.34379e-06 	1.49859
5.355 	3.01551e-06 	1.46101
5.365 	2.71949e-06 	1.42452
5.375 	2.45262e-06 	1.3891
5.385 	2.21206e-06 	1.35476
5.395 	1.99528e-06 	1.32147
5.405 	1.79995e-06 	1.28922
5.415 	1.62398e-06 	1.25801
5.425 	1.46548e-06 	1.22783
5.435 	1.32275e-06 	1.19866
5.445 	1.19424e-06 	1.17051
5.455 	1.07855e-06 	1.14336
5.465 	9.74425e-07 	1.11721
5.475 	8.80727e-07 	1.09205
5.485 	7.96427e-07 	1.06788
5.495 	7.20596e-07 	1.04469
5.505 	6.52395e-07 	1.02247
5.515 	5.91069e-07 	1.00122
5.525 	5.35934e-07 	0.980929
5.535 	4.86374e-07 	0.961593
5.545 	4.41835e-07 	0.9432
5.555 	4.01815e-07 	0.92574
5.565 	3.65861e-07 	0.909199
5.575 	3.33568e-07 	0.893564
5.585 	3.04567e-07 	0.878819
5.595 	2.78527e-07 	0.864945
5.605 	2.55152e-07 	0.851922
5.615 	2.34171e-07 	0.839728
5.625 	2.15343e-07 	0.828338
5.635 	1.98451e-07 	0.817725
5.645 	1.83298e-07 	0.80786
5.655 	1.69707e-07 	0.798713
5.665 	1.5752e-07 	0.790253
5.675 	1.46594e-07 	0.782446
5.685 	1.368e-07 	0.775258
5.695 	1.28023e-07 	0.768656
5.705 	1.20158e-07 	0.762604
5.715 	1.13112e-07 	0.75707
5.725 	1.068e-07 	0.752017
5.735 	1.01148e-07 	0.747414
5.745 	9.60872e-08 	0.743227
5.755 	9.15566e-08 	0.739426
5.765 	8.75015e-08 	0.73598
5.775 	8.38726e-08 	0.732861
5.785 	8.06258e-08 	0.730042
5.795 	7.77213e-08 	0.727498
5.805 	7.51236e-08 	0.725204
5.815 	7.28006e-08 	0.723139
5.825 	7.07237e-08 	0.72128
5.835 	6.88672e-08 	0.719611
5.845 	6.7208e-08 	0.718111
5.855 	6.57254e-08 	0.716767
5.865 	6.44009e-08 	0.715561
5.875 	6.32178e-08 	0.714481
5.885 	6.21611e-08 	0.713515
5.895 	6.12177e-08 	0.71265
5.905 	6.03754e-08 	0.711877
5.915 	5.96237e-08 	0.711186
5.925 	5.89528e-08 	0.71057
5.935 	5.83542e-08 	0.710019
5.945 	5.78202e-08 	0.709528
5.955 	5.7344e-08 	0.70909
5.965 	5.69192e-08 	0.708699
5.975 	5.65406e-08 	0.708351
5.985 	5.6203e-08 	0.708041
5.995 	5.59022e-08 	0.707764
6.005 	5.56341e-08 	0.707519
6.015 	5.53953e-08 	0.7073
6.025 	5.51826e-08 	0.707105
6.035 	5.49931e-08 	0.706932
6.045 	5.48244e-08 	0.706778
6.055 	5.46742e-08 	0.706641
6.065 	5.45406e-08 	0.706519
6.075 	5.44216e-08 	0.706411
6.085 	5.43158e-08 	0.706315
6.095 	5.42216e-08 	0.70623
6.105 	5.41378e-08 	0.706154
6.115 	5.40634e-08 	0.706086
6.125 	5.39971e-08 	0.706027
6.135 	5.39383e-08 	0.705974
6.145 	5.3886e-08 	0.705927
6.155 	5.38395e-08 	0.705885
6.165 	5.37982e-08 	0.705848
6.175 	5.37615e-08 	0.705815
6.185 	5.37289e-08 	0.705786
6.195 	5.37e-08 	0.70576
6.205 	5.36743e-08 	0.705738
6.215 	5.36515e-08 	0.705717
6.225 	5.36312e-08 	0.7057
6.235 	5.36133e-08 	0.705684
6.245 	5.35974e-08 	0.70567
6.255 	5.35832e-08 	0.705657
6.265 	5.35707e-08 	0.705646
6.275 	5.35596e-08 	0.705636
6.285 	5.35498e-08 	0.705628
6.295 	5.3541e-08 	0.70562
6.305 	5.35333e-08 	0.705613
6.315 	5.35264e-08 	0.705607
6.325 	5.35204e-08 	0.705602
6.335 	5.3515e-08 	0.705598
6.345 	5.35102e-08 	0.705593
6.355 	5.3506e-08 	0.70559
6.365 	5.35023e-08 	0.705587
6.375 	5.3499e-08 	0.705584
6.385 	5.34961e-08 	0.705581
6.395 	5.34935e-08 	0.705579
6.405 	5.34912e-08 	0.705577
6.415 	5.34892e-08 	0.705575
6.425 	5.34874e-08 	0.705574
6.435 	5.34858e-08 	0.705572
6.445 	5.34844e-08 	0.705571
6.455 	5.34832e-08 	0.70557
6.465 	5.34821e-08 	0.705569
6.475 	5.34811e-08 	0.705569
6.485 	5.34803e-08 	0.705568
6.495 	5.34795e-08 	0.705567
6.505 	5.34789e-08 	0.705567
6.515 	5.34783e-08 	0.705566
6.525 	5.34778e-08 	0.705566
6.535 	5.34773e-08 	0.705565
6.545 	5.34769e-08 	0.705565
6.555 	5.34765e-08 	0.705565
6.565 	5.34762e-08 	0.705564
6.575 	5.3476e-08 	0.705564
6.585 	5.34757e-08 	0.705564
6.595 	5.34755e-08 	0.705564
6.605 	5.34753e-08 	0.705564
6.615 	5.34751e-08 	0.705564
6.625 	5.3475e-08 	0.705563
6.635 	5.34749e-08 	0.705563
6.645 	5.34747e-08 	0.705563
6.655 	5.34746e-08 	0.705563
6.665 	5.34746e-08 	0.705563
6.675 	5.34745e-08 	0.705563
6.685 	5.34744e-08 	0.705563
6.695 	5.34743e-08 	0.705563
6.705 	5.34743e-08 	0.705563
6.715 	5.34742e-08 	0.705563
6.725 	5.34742e-08 	0.705563
6.735 	5.34742e-08 	0.705563
6.745 	5.34741e-08 	0.705563
6.755 	5.34741e-08 	0.705563
6.765 	5.34741e-08 	0.705563
6.775 	5.3474e-08 	0.705563
6.785 	5.3474e-08 	0.705563
6.795 	5.3474e-08 	0.705563
6.805 	5.3474e-08 	0.705563
6.815 	5.3474e-08 	0.705563
6.825 	5.34739e-08 	0.705562
6.835 	5.34739e-08 	0.705562
6.845 	5.34739e-08 	0.705562
6.855 	5.34739e-08 	0.705562
6.865 	5.34739e-08 	0.705562
6.875 	5.34739e-08 	0.705562
6.885 	5.34739e-08 	0.705562
6.895 	5.34738e-08 	0.705562
6.905 	5.34738e-08 	0.705562
6.915 	5.34738e-08 	0.705562
6.925 	5.34738e-08 	0.705562
6.935 	5.34738e-08 	0.705562
6.945 	5.34738e-08 	0.705562
6.955 	5.34738e-08 	0.705562
6.965 	5.34737e-08 	0.705562
6.975 	5.34737e-08 	0.705562
6.985 	5.34737e-08 	0.705562
6.995 	5.34737e-08 	0.705562
7.005 	5.34737e-08 	0.705562
7.015 	5.34737e-08 	0.705562
7.025 	5.34736e-08 	0.705562
7.035 	5.34736e-08 	0.705562
7.045 	5.34736e-08 	0.705562
7.055 	5.34736e-08 	0.705562
7.065 	5.34735e-08 	0.705562
7.075 	5.34735e-08 	0.705562
7.085 	5.34735e-08 	0.705562
7.095 	5.34734e-08 	0.705562
7.105 	5.34734e-08 	0.705562
7.115 	5.34734e-08 	0.705562
7.125 	5.34733e-08 	0.705562
7.135 	5.34733e-08 	0.705561
7.145 	5.34733e-08 	0.705561
7.155 	5.34732e-08 	0.705561
7.165 	5.34732e-08 	0.705561
7.175 	5.34731e-08 	0.705561
7.185 	5.34731e-08 	0.705561
7.195 	5.3473e-08 	0.705561
7.205 	5.3473e-08 	0.705561
7.215 	5.34729e-08 	0.705561
7.225 	5.34728e-08 	0.705561
7.235 	5.34727e-08 	0.70556
7.245 	5.34727e-08 	0.70556
7.255 	5.34726e-08 	0.70556
7.265 	5.34725e-08 	0.70556
7.275 	5.34724e-08 	0.70556
7.285 	5.34723e-08 	0.70556
7.295 	5.34722e-08 	0.70556
7.305 	5.34721e-08 	0.705559
7.315 	5.3472e-08 	0.705559
7.325 	5.34719e-08 	0.705559
7.335 	5.34718e-08 	0.705559
7.345 	5.34716e-08 	0.705558
7.355 	5.34715e-08 	0.705558
7.365 	5.34713e-08 	0.705558
7.375 	5.34712e-08 	0.705558
7.385 	5.3471e-08 	0.705557
7.395 	5.34708e-08 	0.705557
7.405 	5.34706e-08 	0.705557
7.415 	5.34704e-08 	0.705556
7.425 	5.34702e-08 	0.705556
7.435 	5.347e-08 	0.705555
7.445 	5.34698e-08 	0.705555
7.455 	5.34695e-08 	0.705555
7.465 	5.34693e-08 	0.705554
7.475 	5.3469e-08 	0.705554
7.485 	5.34687e-08 	0.705553
7.495 	5.34684e-08 	0.705552
7.505 	5.34681e-08 	0.705552
7.515 	5.34677e-08 	0.705551
7.525 	5.34673e-08 	0.70555
7.535 	5.3467e-08 	0.70555
7.545 	5.34666e-08 	0.705549
7.555 	5.34661e-08 	0.705548
7.565 	5.34657e-08 	0.705547
7.575 	5.34652e-08 	0.705546
7.585 	5.34647e-08 	0.705545
7.595 	5.34642e-08 	0.705544
7.605 	5.34636e-08 	0.705543
7.615 	5.34631e-08 	0.705542
7.625 	5.34624e-08 	0.705541
7.635 	5.34618e-08 	0.70554
7.645 	5.34611e-08 	0.705538
7.655 	5.34604e-08 	0.705537
7.665 	5.34596e-08 	0.705536
7.675 	5.34589e-08 	0.705534
7.685 	5.3458e-08 	0.705532
7.695 	5.34571e-08 	0.705531
7.705 	5.34562e-08 	0.705529
7.715 	5.34552e-08 	0.705527
7.725 	5.34542e-08 	0.705525
7.735 	5.34531e-08 	0.705523
7.745 	5.3452e-08 	0.705521
7.755 	5.34508e-08 	0.705518
7.765 	5.34496e-08 	0.705516
7.775 	5.34483e-08 	0.705513
7.785 	5.34469e-08 	0.70551
7.795 	5.34455e-08 	0.705507
7.805 	5.34439e-08 	0.705504
7.815 	5.34424e-08 	0.705501
7.825 	5.34407e-08 	0.705498
7.835 	5.34389e-08 	0.705494
7.845 	5.34371e-08 	0.70549
7.855 	5.34352e-08 	0.705487
7.865 	5.34331e-08 	0.705482
7.875 	5.3431e-08 	0.705478
7.885 	5.34288e-08 	0.705474
7.895 	5.34265e-08 	0.705469
7.905 	5.3424e-08 	0.705464
7.915 	5.34214e-08 	0.705458
7.925 	5.34188e-08 	0.705453
7.935 	5.34159e-08 	0.705447
7.945 	5.3413e-08 	0.705441
7.955 	5.34099e-08 	0.705435
7.965 	5.34067e-08 	0.705428
7.975 	5.34033e-08 	0.705421
7.985 	5.33998e-08 	0.705413
7.995 	5.33961e-08 	0.705406
8.005 	5.33922e-08 	0.705398
8.015 	5.33881e-08 	0.705389
8.025 	5.33839e-08 	0.70538
8.035 	5.33794e-08 	0.705371
8.045 	5.33748e-08 	0.705361
8.055 	5.33699e-08 	0.705351
8.065 	5.33649e-08 	0.70534
8.075 	5.33596e-08 	0.705329
8.085 	5.3354e-08 	0.705317
8.095 	5.33483e-08 	0.705304
8.105 	5.33422e-08 	0.705291
8.115 	5.33359e-08 	0.705278
8.125 	5.33293e-08 	0.705264
8.135 	5.33224e-08 	0.705249
8.145 	5.33153e-08 	0.705233
8.155 	5.33078e-08 	0.705217
8.165 	5.33e-08 	0.7052
8.175 	5.32918e-08 	0.705183
8.185 	5.32833e-08 	0.705164
8.195 	5.32744e-08 	0.705145
8.205 	5.32652e-08 	0.705124
8.215 	5.32555e-08 	0.705103
8.225 	5.32455e-08 	0.705081
8.235 	5.3235e-08 	0.705058
8.245 	5.32241e-08 	0.705034
8.255 	5.32127e-08 	0.705009
8.265 	5.32009e-08 	0.704983
8.275 	5.31885e-08 	0.704955
8.285 	5.31757e-08 	0.704927
8.295 	5.31623e-08 	0.704897
8.305 	5.31484e-08 	0.704866
8.315 	5.31339e-08 	0.704834
8.325 	5.31188e-08 	0.7048
8.335 	5.31031e-08 	0.704765
8.345 	5.30868e-08 	0.704728
8.355 	5.30698e-08 	0.704689
8.365 	5.30522e-08 	0.70465
8.375 	5.30338e-08 	0.704608
8.385 	5.30148e-08 	0.704565
8.395 	5.29949e-08 	0.704519
8.405 	5.29743e-08 	0.704472
8.415 	5.29529e-08 	0.704424
8.425 	5.29307e-08 	0.704373
8.435 	5.29076e-08 	0.70432
8.445 	5.28837e-08 	0.704264
8.455 	5.28588e-08 	0.704207
8.465 	5.28329e-08 	0.704147
8.475 	5.28061e-08 	0.704085
8.485 	5.27783e-08 	0.70402
8.495 	5.27494e-08 	0.703953
8.505 	5.27195e-08 	0.703883
8.515 	5.26884e-08 	0.703811
8.525 	5.26562e-08 	0.703735
8.535 	5.26228e-08 	0.703657
8.545 	5.25882e-08 	0.703575
8.555 	5.25523e-08 	0.70349
8.565 	5.25151e-08 	0.703402
8.575 	5.24766e-08 	0.703311
8.585 	5.24367e-08 	0.703216
8.595 	5.23954e-08 	0.703118
8.605 	5.23526e-08 	0.703015
8.615 	5.23083e-08 	0.702909
8.625 	5.22624e-08 	0.702799
8.635 	5.2215e-08 	0.702685
8.645 	5.21658e-08 	0.702566
8.655 	5.2115e-08 	0.702443
8.665 	5.20624e-08 	0.702316
8.675 	5.2008e-08 	0.702184
8.685 	5.19518e-08 	0.702047
8.695 	5.18937e-08 	0.701905
8.705 	5.18336e-08 	0.701757
8.715 	5.17715e-08 	0.701605
8.725 	5.17073e-08 	0.701446
8.735 	5.16409e-08 	0.701283
8.745 	5.15724e-08 	0.701113
8.755 	5.15017e-08 	0.700937
8.765 	5.14286e-08 	0.700755
8.775 	5.13532e-08 	0.700567
8.785 	5.12753e-08 	0.700372
8.795 	5.11949e-08 	0.70017
8.805 	5.11119e-08 	0.699961
8.815 	5.10264e-08 	0.699745
8.825 	5.09381e-08 	0.699521
8.835 	5.0847e-08 	0.699289
8.845 	5.07531e-08 	0.69905
8.855 	5.06563e-08 	0.698803
8.865 	5.05565e-08 	0.698547
8.875 	5.04537e-08 	0.698282
8.885 	5.03477e-08 	0.698008
8.895 	5.02385e-08 	0.697725
8.905 	5.0126e-08 	0.697433
8.915 	5.00102e-08 	0.697131
8.925 	4.98909e-08 	0.696819
8.935 	4.97681e-08 	0.696497
8.945 	4.96416e-08 	0.696164
8.955 	4.95115e-08 	0.69582
8.965 	4.93776e-08 	0.695465
8.975 	4.92398e-08 	0.695098
8.985 	4.90981e-08 	0.69472
8.995 	4.89524e-08 	0.694329
9.005 	4.88025e-08 	0.693925
9.015 	4.86485e-08 	0.693509
9.025 	4.84901e-08 	0.693079
9.035 	4.83273e-08 	0.692636
9.045 	4.81601e-08 	0.692179
9.055 	4.79883e-08 	0.691707
9.065 	4.78118e-08 	0.691221
9.075 	4.76305e-08 	0.690719
9.085 	4.74444e-08 	0.690202
9.095 	4.72533e-08 	0.689668
9.105 	4.70572e-08 	0.689118
9.115 	4.6856e-08 	0.688551
9.125 	4.66495e-08 	0.687966
9.135 	4.64376e-08 	0.687364
9.145 	4.62203e-08 	0.686743
9.155 	4.59975e-08 	0.686103
9.165 	4.57691e-08 	0.685444
9.175 	4.55349e-08 	0.684765
9.185 	4.52948e-08 	0.684065
9.195 	4.50489e-08 	0.683344
9.205 	4.47969e-08 	0.682602
9.215 	4.45387e-08 	0.681837
9.225 	4.42744e-08 	0.68105
9.235 	4.40037e-08 	0.680239
9.245 	4.37265e-08 	0.679404
9.255 	4.34429e-08 	0.678544
9.265 	4.31526e-08 	0.677659
9.275 	4.28555e-08 	0.676748
9.285 	4.25516e-08 	0.67581
9.295 	4.22409e-08 	0.674844
9.305 	4.1923e-08 	0.67385
9.315 	4.15981e-08 	0.672827
9.325 	4.1266e-08 	0.671774
9.335 	4.09265e-08 	0.67069
9.345 	4.05796e-08 	0.669575
9.355 	4.02253e-08 	0.668427
9.365 	3.98633e-08 	0.667246
9.375 	3.94937e-08 	0.666031
9.385 	3.91164e-08 	0.66478
9.395 	3.87312e-08 	0.663493
9.405 	3.8338e-08 	0.662169
9.415 	3.79369e-08 	0.660807
9.425 	3.75276e-08 	0.659405
9.435 	3.71102e-08 	0.657962
9.445 	3.66846e-08 	0.656478
9.455 	3.62507e-08 	0.65495
9.465 	3.58083e-08 	0.653379
9.475 	3.53575e-08 	0.651761
9.485 	3.48982e-08 	0.650097
9.495 	3.44304e-08 	0.648384
9.505 	3.39539e-08 	0.646621
9.515 	3.34687e-08 	0.644807
9.525 	3.29748e-08 	0.64294
9.535 	3.24721e-08 	0.641017
9.545 	3.19606e-08 	0.639038
9.555 	3.14403e-08 	0.637001
9.565 	3.09111e-08 	0.634903
9.575 	3.03729e-08 	0.632743
9.585 	2.98258e-08 	0.630518
9.595 	2.92698e-08 	0.628227
9.605 	2.87048e-08 	0.625866
9.615 	2.81309e-08 	0.623433
9.625 	2.7548e-08 	0.620926
9.635 	2.69561e-08 	0.618342
9.645 	2.63553e-08 	0.615678
9.655 	2.57455e-08 	0.612931
9.665 	2.51269e-08 	0.610098
9.675 	2.44994e-08 	0.607174
9.685 	2.3863e-08 	0.604157
9.695 	2.32179e-08 	0.601043
9.705 	2.25641e-08 	0.597826
9.715 	2.19016e-08 	0.594503
9.725 	2.12306e-08 	0.591069
9.735 	2.0551e-08 	0.587518
9.745 	1.98631e-08 	0.583845
9.755 	1.91668e-08 	0.580043
9.765 	1.84624e-08 	0.576106
9.775 	1.77498e-08 	0.572027
9.785 	1.70294e-08 	0.567797
9.795 	1.63011e-08 	0.563408
9.805 	1.55653e-08 	0.558851
9.815 	1.48219e-08 	0.554114
9.825 	1.40712e-08 	0.549187
9.835 	1.33134e-08 	0.544056
9.845 	1.25487e-08 	0.538706
9.855 	1.17772e-08 	0.533122
9.865 	1.09993e-08 	0.527285
9.875 	1.02151e-08 	0.521174
9.885 	9.42485e-09 	0.514765
9.895 	8.62888e-09 	0.50803
9.905 	7.82743e-09 	0.500937
9.915 	7.02078e-09 	0.493448
9.925 	6.20923e-09 	0.485519
9.935 	5.3931e-09 	0.477095
9.945 	4.5727e-09 	0.46811
9.955 	3.74838e-09 	0.458485
9.965 	2.9205e-09 	0.448118
9.975 	2.08941e-09 	0.436876
9.985 	1.25551e-09 	0.424588
9.995 	4.19175e-10 	0.411018
