/*--------------------------------*- C++ -*----------------------------------*\
| =========                 |                                                 |
| \\      /  F ield         | OpenFOAM: The Open Source CFD Toolbox           |
|  \\    /   O peration     | Version:  2212                                  |
|   \\  /    A nd           | Website:  www.openfoam.com                      |
|    \\/     M anipulation  |                                                 |
\*---------------------------------------------------------------------------*/
FoamFile
{
    version     2.0;
    format      ascii;
    arch        "LSB;label=32;scalar=64";
    class       volScalarField;
    location    "0.004";
    object      G;
}
// * * * * * * * * * * * * * * * * * * * * * * * * * * * * * * * * * * * * * //

dimensions      [1 0 -3 0 0 0 0];

internalField   nonuniform List<scalar> 
100
(
1823.3
1822.19
1820.97
1819.62
1818.15
1816.53
1814.75
1812.81
1810.69
1808.36
1805.82
1803.04
1800.01
1796.7
1793.08
1789.14
1784.83
1780.13
1775
1769.41
1763.3
1756.65
1749.38
1741.47
1732.83
1723.42
1713.16
1701.99
1689.85
1676.68
1662.44
1647.13
1630.77
1613.46
1595.34
1576.62
1557.58
1538.56
1519.95
1502.19
1485.74
1471.1
1458.77
1449.26
1443.09
1440.77
1442.82
1449.75
1462.07
1480.27
1504.87
1536.35
1575.17
1621.8
1676.63
1740.02
1812.23
1893.38
1983.37
2081.74
2187.48
2298.76
2412.78
2525.56
2632.12
2726.87
2804.32
2859.71
2889.57
2892.07
2867.72
2820.49
2758.01
2689.35
2621.35
2557.23
2497.89
2443.32
2393.23
2347.29
2305.17
2266.57
2231.18
2198.74
2169.02
2141.78
2116.83
2093.97
2073.04
2053.88
2036.34
2020.3
2005.63
1992.22
1979.97
1968.8
1958.61
1949.33
1940.89
1933.23
)
;

boundaryField
{
    sides
    {
        type            myMarshakRadiation;
        refValue        nonuniform List<scalar> 2(1837.23 1837.21);
        refGradient     uniform 0;
        valueFraction   nonuniform List<scalar> 2(0.0361446 0.0361446);
        source          uniform 0;
        value           nonuniform List<scalar> 2(1929.76 1823.8);
    }
    empty
    {
        type            empty;
    }
}


// ************************************************************************* //
