/*--------------------------------*- C++ -*----------------------------------*\
| =========                 |                                                 |
| \\      /  F ield         | OpenFOAM: The Open Source CFD Toolbox           |
|  \\    /   O peration     | Version:  2212                                  |
|   \\  /    A nd           | Website:  www.openfoam.com                      |
|    \\/     M anipulation  |                                                 |
\*---------------------------------------------------------------------------*/
FoamFile
{
    version     2.0;
    format      ascii;
    arch        "LSB;label=32;scalar=64";
    class       volScalarField;
    location    "0.004";
    object      p;
}
// * * * * * * * * * * * * * * * * * * * * * * * * * * * * * * * * * * * * * //

dimensions      [1 -1 -2 0 0 0 0];

internalField   nonuniform List<scalar> 
100
(
99185.7
99185.7
99185.7
99185.7
99185.7
99185.7
99185.7
99185.7
99185.7
99185.7
99185.7
99185.7
99185.7
99185.7
99185.7
99185.7
99185.7
99185.7
99185.6
99185.4
99184.8
99183.3
99179.8
99171.4
99153
99114.3
99037.4
98893.1
98637.8
98212.3
97544.5
96557.3
95180
93361.1
91078.3
88341.4
85190.6
81688
77909.3
73934.3
69841
65701.2
61579.8
57529.7
53597.6
49823.8
46243.4
42891.7
39801.5
37010.5
34563.5
32511.4
30902.6
29759.4
29045.7
28663.1
28489.5
28419
28391.5
28379.3
28372.3
28367.6
28364.1
28360.4
28354.3
28341.8
28312.9
28233.6
27984.9
27242.9
25434.2
22126.2
17803.1
13899.7
11500.9
10452.7
10086
9969.82
9934.18
9923.33
9920.03
9919.03
9918.73
9918.63
9918.6
9918.59
9918.58
9918.58
9918.57
9918.57
9918.56
9918.56
9918.56
9918.55
9918.55
9918.55
9918.55
9918.54
9918.54
9918.54
)
;

boundaryField
{
    sides
    {
        type            zeroGradient;
    }
    empty
    {
        type            empty;
    }
}


// ************************************************************************* //
