/*--------------------------------*- C++ -*----------------------------------*\
| =========                 |                                                 |
| \\      /  F ield         | OpenFOAM: The Open Source CFD Toolbox           |
|  \\    /   O peration     | Version:  2212                                  |
|   \\  /    A nd           | Website:  www.openfoam.com                      |
|    \\/     M anipulation  |                                                 |
\*---------------------------------------------------------------------------*/
FoamFile
{
    version     2.0;
    format      ascii;
    arch        "LSB;label=32;scalar=64";
    class       volScalarField;
    location    "0.004";
    object      p;
}
// * * * * * * * * * * * * * * * * * * * * * * * * * * * * * * * * * * * * * //

dimensions      [1 -1 -2 0 0 0 0];

internalField   nonuniform List<scalar> 
100
(
99185.7
99185.7
99185.7
99185.7
99185.7
99185.7
99185.7
99185.7
99185.7
99185.7
99185.7
99185.7
99185.7
99185.7
99185.7
99185.7
99185.7
99185.7
99185.7
99185.6
99185.4
99184.7
99182.9
99178.2
99166.6
99139.9
99082.7
98967.8
98751.8
98373.3
97753.9
96807.2
95452.1
93629.2
91313
88516.6
85287.8
81699.2
77836.8
73789
69639.7
65463.6
61326
57278.5
53365
49622.4
46082.3
42776.1
39732.6
36986
34577.3
32553.1
30957.3
29809.1
29074.6
28663.2
28462.8
28373.8
28336.6
28321.9
28317
28316.6
28318.7
28322
28325.7
28329.3
28330
28303.5
28132.1
27455.9
25614.9
22122.4
17572
13592
11281.5
10343.7
10040.4
9952.08
9927.51
9920.87
9919.11
9918.66
9918.55
9918.53
9918.52
9918.52
9918.52
9918.52
9918.52
9918.52
9918.52
9918.52
9918.52
9918.52
9918.52
9918.52
9918.52
9918.52
9918.52
9918.52
)
;

boundaryField
{
    sides
    {
        type            zeroGradient;
    }
    empty
    {
        type            empty;
    }
}


// ************************************************************************* //
