/*--------------------------------*- C++ -*----------------------------------*\
| =========                 |                                                 |
| \\      /  F ield         | OpenFOAM: The Open Source CFD Toolbox           |
|  \\    /   O peration     | Version:  2212                                  |
|   \\  /    A nd           | Website:  www.openfoam.com                      |
|    \\/     M anipulation  |                                                 |
\*---------------------------------------------------------------------------*/
FoamFile
{
    version     2.0;
    format      ascii;
    arch        "LSB;label=32;scalar=64";
    class       volScalarField;
    location    "0.004";
    object      rho;
}
// * * * * * * * * * * * * * * * * * * * * * * * * * * * * * * * * * * * * * //

dimensions      [1 -3 0 0 0 0 0];

internalField   nonuniform List<scalar> 
100
(
1.16102
1.16102
1.16102
1.16102
1.16102
1.16102
1.16102
1.16102
1.16102
1.16102
1.16102
1.16102
1.16102
1.16102
1.16102
1.16102
1.16102
1.16102
1.16102
1.16102
1.16101
1.161
1.16097
1.1609
1.16075
1.16042
1.15978
1.15857
1.15643
1.15286
1.14724
1.13891
1.12723
1.11171
1.09207
1.06832
1.04066
1.00953
0.975466
0.939068
0.900947
0.861684
0.821832
0.781861
0.742217
0.703309
0.665531
0.629304
0.595054
0.563282
0.534582
0.509613
0.488935
0.472652
0.459882
0.448599
0.436383
0.421227
0.402308
0.380098
0.356016
0.331891
0.309432
0.289875
0.273868
0.261507
0.252446
0.245933
0.2406
0.233848
0.2216
0.200502
0.172528
0.145998
0.128566
0.12045
0.117487
0.116528
0.116232
0.116141
0.116114
0.116106
0.116103
0.116102
0.116102
0.116102
0.116102
0.116102
0.116102
0.116102
0.116102
0.116102
0.116102
0.116102
0.116102
0.116102
0.116102
0.116102
0.116102
0.116102
)
;

boundaryField
{
    sides
    {
        type            zeroGradient;
    }
    empty
    {
        type            empty;
    }
}


// ************************************************************************* //
