/*--------------------------------*- C++ -*----------------------------------*\
| =========                 |                                                 |
| \\      /  F ield         | OpenFOAM: The Open Source CFD Toolbox           |
|  \\    /   O peration     | Version:  2212                                  |
|   \\  /    A nd           | Website:  www.openfoam.com                      |
|    \\/     M anipulation  |                                                 |
\*---------------------------------------------------------------------------*/
FoamFile
{
    version     2.0;
    format      ascii;
    arch        "LSB;label=32;scalar=64";
    class       volScalarField;
    location    "0.004";
    object      T;
}
// * * * * * * * * * * * * * * * * * * * * * * * * * * * * * * * * * * * * * //

dimensions      [0 0 0 1 0 0 0];

internalField   nonuniform List<scalar> 
100
(
300
300
300
300
300
300
300
300
300
300
300
300
300
300
300
300
300
300
300
300
299.999
299.998
299.995
299.987
299.971
299.937
299.868
299.741
299.514
299.136
298.543
297.662
296.426
294.78
292.689
290.144
287.157
283.757
279.988
275.9
271.545
266.976
262.245
257.402
252.497
247.581
242.713
237.963
233.416
229.186
225.43
222.36
220.243
219.38
220.082
222.712
227.685
235.493
246.612
261.287
279.36
300.155
322.479
344.766
365.369
382.918
396.606
406.213
411.698
412.37
406.115
390.081
364.127
335.258
314.508
304.867
301.507
300.46
300.142
300.045
300.016
300.007
300.004
300.003
300.002
300.002
300.002
300.002
300.002
300.001
300.001
300.001
300.001
300.001
300.001
300.001
300.001
300.001
300.001
300.001
)
;

boundaryField
{
    sides
    {
        type            zeroGradient;
    }
    empty
    {
        type            empty;
    }
}


// ************************************************************************* //
