/*--------------------------------*- C++ -*----------------------------------*\
| =========                 |                                                 |
| \\      /  F ield         | OpenFOAM: The Open Source CFD Toolbox           |
|  \\    /   O peration     | Version:  2212                                  |
|   \\  /    A nd           | Website:  www.openfoam.com                      |
|    \\/     M anipulation  |                                                 |
\*---------------------------------------------------------------------------*/
FoamFile
{
    version     2.0;
    format      ascii;
    arch        "LSB;label=32;scalar=64";
    class       volScalarField;
    location    "0.004";
    object      thermo:e;
}
// * * * * * * * * * * * * * * * * * * * * * * * * * * * * * * * * * * * * * //

dimensions      [0 2 -2 0 0 0 0];

internalField   nonuniform List<scalar> 
100
(
213576
213576
213576
213576
213576
213576
213576
213576
213576
213576
213576
213576
213576
213576
213576
213576
213576
213576
213576
213576
213576
213575
213573
213567
213556
213532
213485
213396
213239
212977
212565
211953
211095
209952
208500
206732
204657
202294
199674
196831
193801
190621
187327
183953
180534
177107
173710
170395
167220
164265
161639
159493
158012
157408
157899
159739
163216
168670
176431
186660
199237
213684
229165
244595
258835
270950
280389
287009
290786
291249
286941
275890
257977
238015
223641
216954
214622
213896
213675
213608
213587
213581
213579
213578
213578
213578
213578
213578
213577
213577
213577
213577
213577
213577
213577
213577
213577
213577
213577
213577
)
;

boundaryField
{
    sides
    {
        type            zeroGradient;
    }
    empty
    {
        type            empty;
    }
}


// ************************************************************************* //
