/*--------------------------------*- C++ -*----------------------------------*\
| =========                 |                                                 |
| \\      /  F ield         | OpenFOAM: The Open Source CFD Toolbox           |
|  \\    /   O peration     | Version:  2212                                  |
|   \\  /    A nd           | Website:  www.openfoam.com                      |
|    \\/     M anipulation  |                                                 |
\*---------------------------------------------------------------------------*/
FoamFile
{
    version     2.0;
    format      ascii;
    arch        "LSB;label=32;scalar=64";
    class       volVectorField;
    location    "0.004";
    object      U;
}
// * * * * * * * * * * * * * * * * * * * * * * * * * * * * * * * * * * * * * //

dimensions      [0 1 -1 0 0 0 0];

internalField   nonuniform List<vector> 
100
(
(1.74642e-06 0 0)
(2.22744e-06 0 0)
(2.69211e-06 0 0)
(3.14801e-06 0 0)
(3.60205e-06 0 0)
(4.06113e-06 0 0)
(4.53214e-06 0 0)
(5.02194e-06 0 0)
(5.53758e-06 0 0)
(6.08713e-06 0 0)
(6.683e-06 0 0)
(7.35413e-06 0 0)
(8.18934e-06 0 0)
(9.48406e-06 0 0)
(1.22172e-05 0 0)
(1.95311e-05 0 0)
(4.11102e-05 0 0)
(0.000105516 0 0)
(0.000293166 0 0)
(0.000819792 0 0)
(0.00223568 0 0)
(0.00587228 0 0)
(0.0147774 0 0)
(0.0355305 0 0)
(0.0814771 0 0)
(0.177943 0 0)
(0.369668 0 0)
(0.729797 0 0)
(1.3683 0 0)
(2.43609 0 0)
(4.12074 0 0)
(6.63137 0 0)
(10.1744 0 0)
(14.9265 0 0)
(21.0119 0 0)
(28.4914 0 0)
(37.3634 0 0)
(47.574 0 0)
(59.0322 0 0)
(71.6246 0 0)
(85.227 0 0)
(99.7088 0 0)
(114.94 0 0)
(130.796 0 0)
(147.144 0 0)
(163.839 0 0)
(180.708 0 0)
(197.534 0 0)
(214.039 0 0)
(229.842 0 0)
(244.429 0 0)
(257.169 0 0)
(267.421 0 0)
(274.792 0 0)
(279.401 0 0)
(281.876 0 0)
(283.038 0 0)
(283.562 0 0)
(283.825 0 0)
(283.997 0 0)
(284.138 0 0)
(284.262 0 0)
(284.367 0 0)
(284.442 0 0)
(284.467 0 0)
(284.397 0 0)
(284.11 0 0)
(283.156 0 0)
(280.006 0 0)
(270.735 0 0)
(248.61 0 0)
(207.243 0 0)
(147.514 0 0)
(83.6028 0 0)
(36.4436 0 0)
(12.9262 0 0)
(4.13018 0 0)
(1.27152 0 0)
(0.387295 0 0)
(0.117617 0 0)
(0.0357661 0 0)
(0.0110334 0 0)
(0.00360414 0 0)
(0.00138121 0 0)
(0.000708145 0 0)
(0.000490509 0 0)
(0.000405428 0 0)
(0.000359362 0 0)
(0.000325705 0 0)
(0.000296946 0 0)
(0.000270879 0 0)
(0.000246724 0 0)
(0.000224062 0 0)
(0.000202554 0 0)
(0.000181854 0 0)
(0.000161594 0 0)
(0.000141362 0 0)
(0.000120704 0 0)
(9.91026e-05 0 0)
(7.59451e-05 0 0)
)
;

boundaryField
{
    sides
    {
        type            zeroGradient;
    }
    empty
    {
        type            empty;
    }
}


// ************************************************************************* //
