/*--------------------------------*- C++ -*----------------------------------*\
| =========                 |                                                 |
| \\      /  F ield         | OpenFOAM: The Open Source CFD Toolbox           |
|  \\    /   O peration     | Version:  2312                                  |
|   \\  /    A nd           | Website:  www.openfoam.com                      |
|    \\/     M anipulation  |                                                 |
\*---------------------------------------------------------------------------*/
FoamFile
{
    version     2.0;
    format      ascii;
    arch        "LSB;label=32;scalar=64";
    class       volScalarField;
    location    "0.00011";
    object      p;
}
// * * * * * * * * * * * * * * * * * * * * * * * * * * * * * * * * * * * * * //

dimensions      [1 -1 -2 0 0 0 0];

internalField   nonuniform List<scalar> 
500
(
325622
325710
325764
325801
325829
325851
325870
325887
325901
325915
325927
325938
325949
325959
325969
325978
325987
325996
326004
326012
326020
326028
326036
326044
326052
326060
326068
326075
326083
326091
326099
326107
326115
326123
326131
326139
326147
326156
326164
326173
326182
326190
326200
326209
326218
326228
326238
326248
326258
326268
326279
326289
326300
326312
326323
326335
326347
326360
326372
326385
326398
326412
326426
326440
326455
326470
326485
326501
326517
326534
326551
326569
326587
326605
326624
326644
326664
326685
326706
326728
326750
326774
326797
326822
326847
326873
326900
326928
326956
326986
327016
327047
327080
327113
327147
327182
327219
327257
327296
327336
327377
327420
327464
327510
327557
327606
327657
327709
327763
327819
327877
327937
327999
328063
328130
328198
328270
328344
328420
328499
328582
328667
328755
328847
328942
329040
329142
329248
329358
329473
329591
329714
329842
329975
330113
330256
330405
330560
330721
330888
331062
331242
331430
331626
331829
332040
332260
332489
332727
332975
333233
333502
333782
334073
334376
334692
335021
335363
335720
336092
336480
336883
337304
337742
338199
338676
339172
339690
340229
340792
341378
341990
342628
343293
343986
344710
345465
346252
347073
347929
348823
349755
350728
351743
352802
353907
355061
356264
357520
358831
360200
361628
363119
364675
366300
367996
369767
371617
373548
375564
377669
379868
382165
384564
387070
389688
392423
395280
398266
401385
404646
408053
411614
415337
419229
423298
427552
432000
436652
441517
446606
451929
457498
463324
469420
475798
482473
489460
496771
504425
512436
520823
529602
538794
548417
558491
569037
580077
591632
603722
616350
629548
643343
657752
672789
688458
704749
721628
739021
756785
774668
792233
808738
822946
832812
835031
824426
793353
731790
629882
486975
326503
194993
125929
104911
100793
100121
100017
100000
99998
99997.6
99997.6
99997.6
99997.6
99997.6
99997.6
99997.6
99997.6
99997.6
99997.6
99997.6
99997.6
99997.6
99997.6
99997.6
99997.6
99997.6
99997.6
99997.6
99997.6
99997.6
99997.6
99997.6
99997.6
99997.6
99997.6
99997.6
99997.6
99997.6
99997.6
99997.6
99997.6
99997.6
99997.6
99997.6
99997.6
99997.6
99997.6
99997.6
99997.6
99997.6
99997.6
99997.6
99997.6
99997.6
99997.6
99997.6
99997.6
99997.6
99997.6
99997.6
99997.6
99997.6
99997.6
99997.6
99997.6
99997.6
99997.6
99997.6
99997.6
99997.6
99997.6
99997.6
99997.6
99997.6
99997.6
99997.6
99997.6
99997.6
99997.6
99997.6
99997.6
99997.6
99997.6
99997.6
99997.6
99997.6
99997.6
99997.6
99997.6
99997.6
99997.6
99997.6
99997.6
99997.6
99997.6
99997.6
99997.6
99997.6
99997.6
99997.6
99997.6
99997.6
99997.6
99997.6
99997.6
99997.6
99997.6
99997.6
99997.6
99997.6
99997.6
99997.6
99997.6
99997.6
99997.6
99997.6
99997.6
99997.6
99997.6
99997.6
99997.6
99997.6
99997.6
99997.6
99997.6
99997.6
99997.6
99997.6
99997.6
99997.6
99997.6
99997.6
99997.6
99997.6
99997.6
99997.6
99997.6
99997.6
99997.6
99997.6
99997.6
99997.6
99997.6
99997.6
99997.6
99997.6
99997.6
99997.6
99997.6
99997.6
99997.6
99997.6
99997.6
99997.6
99997.6
99997.6
99997.6
99997.6
99997.6
99997.6
99997.6
99997.6
99997.6
99997.6
99997.6
99997.6
99997.6
99997.6
99997.6
99997.6
99997.6
99997.6
99997.6
99997.6
99997.6
99997.6
99997.6
99997.6
99997.6
99997.6
99997.6
99997.6
99997.6
99997.6
99997.6
99997.6
99997.6
99997.6
99997.6
99997.6
99997.6
99997.6
99997.6
99997.6
99997.6
99997.6
99997.6
99997.6
99997.6
99997.6
99997.6
99997.6
99997.6
99997.6
99997.6
99997.6
99997.6
99997.6
99997.6
99997.6
99997.6
99997.6
99997.6
99997.6
99997.6
99997.6
99997.6
99997.6
99997.6
99997.6
99997.6
99997.6
99997.6
99997.6
99997.6
99997.6
99997.6
99997.6
99997.6
99997.6
99997.6
99997.6
99997.6
99997.6
99997.6
99997.6
99997.6
99997.6
99997.6
)
;

boundaryField
{
    wedge0
    {
        type            wedge;
    }
    wedge1
    {
        type            wedge;
    }
    wedge2
    {
        type            wedge;
    }
    wedge3
    {
        type            wedge;
    }
    outlet
    {
        type            zeroGradient;
    }
    defaultFaces
    {
        type            empty;
    }
}


// ************************************************************************* //
