/*--------------------------------*- C++ -*----------------------------------*\
| =========                 |                                                 |
| \\      /  F ield         | OpenFOAM: The Open Source CFD Toolbox           |
|  \\    /   O peration     | Version:  2312                                  |
|   \\  /    A nd           | Website:  www.openfoam.com                      |
|    \\/     M anipulation  |                                                 |
\*---------------------------------------------------------------------------*/
FoamFile
{
    version     2.0;
    format      ascii;
    arch        "LSB;label=32;scalar=64";
    class       volScalarField;
    location    "0.00011";
    object      rho;
}
// * * * * * * * * * * * * * * * * * * * * * * * * * * * * * * * * * * * * * //

dimensions      [1 -3 0 0 0 0 0];

internalField   nonuniform List<scalar> 
500
(
0.00519594
0.00519834
0.00520174
0.00520635
0.00521226
0.00521951
0.00522813
0.00523814
0.00524955
0.00526238
0.00527663
0.00529233
0.00530949
0.00532812
0.00534823
0.00536985
0.00539299
0.00541766
0.0054439
0.00547171
0.00550112
0.00553216
0.00556484
0.0055992
0.00563526
0.00567305
0.0057126
0.00575394
0.00579711
0.00584214
0.00588906
0.00593792
0.00598875
0.0060416
0.00609651
0.00615353
0.0062127
0.00627407
0.00633769
0.00640362
0.00647192
0.00654264
0.00661584
0.00669158
0.00676994
0.00685098
0.00693477
0.00702138
0.0071109
0.0072034
0.00729896
0.00739768
0.00749963
0.00760493
0.00771365
0.00782591
0.00794181
0.00806145
0.00818496
0.00831244
0.00844403
0.00857984
0.00872001
0.00886468
0.00901399
0.00916809
0.00932714
0.00949128
0.0096607
0.00983555
0.010016
0.0102023
0.0103946
0.0105931
0.010798
0.0110096
0.011228
0.0114535
0.0116863
0.0119267
0.012175
0.0124315
0.0126963
0.0129699
0.0132525
0.0135444
0.0138461
0.0141578
0.0144799
0.0148127
0.0151568
0.0155124
0.01588
0.01626
0.016653
0.0170594
0.0174796
0.0179142
0.0183638
0.0188288
0.01931
0.0198078
0.020323
0.0208561
0.0214079
0.0219791
0.0225704
0.0231826
0.0238164
0.0244728
0.0251526
0.0258567
0.026586
0.0273415
0.0281242
0.0289353
0.0297757
0.0306467
0.0315493
0.032485
0.0334549
0.0344604
0.0355029
0.0365838
0.0377046
0.038867
0.0400725
0.0413228
0.0426198
0.0439651
0.0453607
0.0468087
0.0483109
0.0498696
0.051487
0.0531654
0.0549071
0.0567146
0.0585905
0.0605375
0.0625582
0.0646557
0.0668328
0.0690926
0.0714383
0.0738733
0.076401
0.079025
0.0817488
0.0845764
0.0875117
0.0905589
0.0937221
0.0970057
0.100414
0.103953
0.107626
0.111438
0.115396
0.119504
0.123767
0.128192
0.132785
0.137552
0.142498
0.147632
0.152959
0.158487
0.164223
0.170174
0.176348
0.182754
0.1894
0.196294
0.203445
0.210863
0.218557
0.226536
0.234812
0.243394
0.252294
0.261523
0.271092
0.281014
0.291301
0.301966
0.313023
0.324485
0.336368
0.348686
0.361454
0.374689
0.388408
0.402627
0.417366
0.432642
0.448476
0.464887
0.481897
0.499528
0.517803
0.536745
0.556379
0.576731
0.597828
0.619698
0.642371
0.665877
0.690247
0.715516
0.741718
0.768889
0.797067
0.826292
0.856605
0.88805
0.920671
0.954515
0.989632
1.02607
1.06389
1.10315
1.14389
1.18619
1.2301
1.2757
1.32305
1.37222
1.42329
1.47633
1.53142
1.58865
1.64811
1.70987
1.77403
1.84069
1.90993
1.98186
2.05656
2.13412
2.21434
2.29734
2.38336
2.47253
2.56494
2.66064
2.7596
2.86175
2.96684
3.07445
3.18375
3.29333
3.40079
3.50205
3.59039
3.65476
3.67769
3.63282
3.48422
3.19264
2.73834
2.17456
1.65019
1.3211
1.19655
1.16726
1.162
1.16116
1.16102
1.161
1.161
1.161
1.161
1.161
1.161
1.161
1.161
1.161
1.161
1.161
1.161
1.161
1.161
1.161
1.161
1.161
1.161
1.161
1.161
1.161
1.161
1.161
1.161
1.161
1.161
1.161
1.161
1.161
1.161
1.161
1.161
1.161
1.161
1.161
1.161
1.161
1.161
1.161
1.161
1.161
1.161
1.161
1.161
1.161
1.161
1.161
1.161
1.161
1.161
1.161
1.161
1.161
1.161
1.161
1.161
1.161
1.161
1.161
1.161
1.161
1.161
1.161
1.161
1.161
1.161
1.161
1.161
1.161
1.161
1.161
1.161
1.161
1.161
1.161
1.161
1.161
1.161
1.161
1.161
1.161
1.161
1.161
1.161
1.161
1.161
1.161
1.161
1.161
1.161
1.161
1.161
1.161
1.161
1.161
1.161
1.161
1.161
1.161
1.161
1.161
1.161
1.161
1.161
1.161
1.161
1.161
1.161
1.161
1.161
1.161
1.161
1.161
1.161
1.161
1.161
1.161
1.161
1.161
1.161
1.161
1.161
1.161
1.161
1.161
1.161
1.161
1.161
1.161
1.161
1.161
1.161
1.161
1.161
1.161
1.161
1.161
1.161
1.161
1.161
1.161
1.161
1.161
1.161
1.161
1.161
1.161
1.161
1.161
1.161
1.161
1.161
1.161
1.161
1.161
1.161
1.161
1.161
1.161
1.161
1.161
1.161
1.161
1.161
1.161
1.161
1.161
1.161
1.161
1.161
1.161
1.161
1.161
1.161
1.161
1.161
1.161
1.161
1.161
1.161
1.161
1.161
1.161
1.161
1.161
1.161
1.161
1.161
1.161
1.161
1.161
1.161
1.161
1.161
1.161
1.161
1.161
1.161
1.161
1.161
1.161
1.161
1.161
1.161
1.161
1.161
1.161
1.161
1.161
1.161
1.161
1.161
1.161
1.161
1.161
1.161
1.161
1.161
1.161
1.161
1.161
1.161
1.161
1.161
1.161
1.161
1.161
1.161
1.161
1.161
1.161
)
;

boundaryField
{
    wedge0
    {
        type            wedge;
    }
    wedge1
    {
        type            wedge;
    }
    wedge2
    {
        type            wedge;
    }
    wedge3
    {
        type            wedge;
    }
    outlet
    {
        type            zeroGradient;
    }
    defaultFaces
    {
        type            empty;
    }
}


// ************************************************************************* //
