/*--------------------------------*- C++ -*----------------------------------*\
| =========                 |                                                 |
| \\      /  F ield         | OpenFOAM: The Open Source CFD Toolbox           |
|  \\    /   O peration     | Version:  2312                                  |
|   \\  /    A nd           | Website:  www.openfoam.com                      |
|    \\/     M anipulation  |                                                 |
\*---------------------------------------------------------------------------*/
FoamFile
{
    version     2.0;
    format      ascii;
    arch        "LSB;label=32;scalar=64";
    class       volScalarField;
    location    "0.00011";
    object      T;
}
// * * * * * * * * * * * * * * * * * * * * * * * * * * * * * * * * * * * * * //

dimensions      [0 0 0 1 0 0 0];

internalField   nonuniform List<scalar> 
500
(
218280
218238
218131
217963
217735
217447
217101
216698
216236
215718
215143
214512
213826
213085
212290
211441
210540
209587
208582
207527
206423
205270
204069
202822
201529
200191
198810
197386
195921
194415
192871
191289
189670
188015
186326
184604
182851
181067
179254
177413
175546
173653
171736
169797
167837
165856
163857
161841
159809
157762
155701
153628
151545
149452
147351
145242
143128
141009
138887
136762
134636
132511
130386
128264
126145
124030
121921
119818
117723
115636
113558
111491
109435
107390
105358
103340
101336
99347.4
97374.3
95417.7
93478.2
91556.5
89653.1
87768.6
85903.6
84058.6
82234.1
80430.5
78648.3
76887.9
75149.6
73433.9
71741
70071.3
68424.9
66802.3
65203.6
63629
62078.6
60552.7
59051.4
57574.8
56123
54696
53293.8
51916.6
50564.3
49237
47934.4
46656.8
45403.8
44175.6
42971.9
41792.6
40637.7
39506.9
38400.2
37317.2
36258
35222.2
34209.6
33220
32253.2
31309
30387
29487.1
28608.9
27752.2
26916.7
26102.1
25308.1
24534.4
23780.7
23046.7
22332.1
21636.5
20959.6
20301.1
19660.7
19038
18432.7
17844.5
17273
16717.9
16178.8
15655.5
15147.6
14654.7
14176.6
13712.8
13263.1
12827.2
12404.7
11995.2
11598.5
11214.3
10842.3
10482
10133.3
9795.84
9469.29
9153.38
8847.81
8552.31
8266.59
7990.38
7723.4
7465.4
7216.1
6975.25
6742.61
6517.93
6300.95
6091.46
5889.22
5694
5505.58
5323.76
5148.31
4979.03
4815.73
4658.21
4506.28
4359.76
4218.46
4082.21
3950.85
3824.2
3702.12
3584.43
3471
3361.67
3256.31
3154.77
3056.92
2962.64
2871.8
2784.27
2699.95
2618.71
2540.45
2465.07
2392.46
2322.52
2255.16
2190.28
2127.81
2067.64
2009.7
1953.92
1900.2
1848.49
1798.7
1750.78
1704.65
1660.25
1617.51
1576.39
1536.83
1498.76
1462.15
1426.93
1393.06
1360.49
1329.18
1299.09
1270.17
1242.39
1215.71
1190.08
1165.49
1141.89
1119.25
1097.55
1076.74
1056.82
1037.74
1019.48
1002.01
985.33
969.498
954.481
940.193
926.583
913.62
901.272
889.513
878.307
867.613
857.373
847.503
837.879
828.31
818.488
807.923
795.806
780.8
760.652
731.551
687.185
619.417
522.974
411.576
332.01
305.391
300.764
300.111
300.016
300.002
300
300
300
300
300
300
300
300
300
300
300
300
300
300
300
300
300
300
300
300
300
300
300
300
300
300
300
300
300
300
300
300
300
300
300
300
300
300
300
300
300
300
300
300
300
300
300
300
300
300
300
300
300
300
300
300
300
300
300
300
300
300
300
300
300
300
300
300
300
300
300
300
300
300
300
300
300
300
300
300
300
300
300
300
300
300
300
300
300
300
300
300
300
300
300
300
300
300
300
300
300
300
300
300
300
300
300
300
300
300
300
300
300
300
300
300
300
300
300
300
300
300
300
300
300
300
300
300
300
300
300
300
300
300
300
300
300
300
300
300
300
300
300
300
300
300
300
300
300
300
300
300
300
300
300
300
300
300
300
300
300
300
300
300
300
300
300
300
300
300
300
300
300
300
300
300
300
300
300
300
300
300
300
300
300
300
300
300
300
300
300
300
300
300
300
300
300
300
300
300
300
300
300
300
300
300
300
300
300
300
300
300
300
300
300
300
300
300
300
300
300
300
300
300
300
300
300
300
300
300
300
)
;

boundaryField
{
    wedge0
    {
        type            wedge;
    }
    wedge1
    {
        type            wedge;
    }
    wedge2
    {
        type            wedge;
    }
    wedge3
    {
        type            wedge;
    }
    outlet
    {
        type            zeroGradient;
    }
    defaultFaces
    {
        type            empty;
    }
}


// ************************************************************************* //
