/*--------------------------------*- C++ -*----------------------------------*\
| =========                 |                                                 |
| \\      /  F ield         | OpenFOAM: The Open Source CFD Toolbox           |
|  \\    /   O peration     | Version:  2312                                  |
|   \\  /    A nd           | Website:  www.openfoam.com                      |
|    \\/     M anipulation  |                                                 |
\*---------------------------------------------------------------------------*/
FoamFile
{
    version     2.0;
    format      ascii;
    arch        "LSB;label=32;scalar=64";
    class       volScalarField;
    location    "0.00011";
    object      thermo:e;
}
// * * * * * * * * * * * * * * * * * * * * * * * * * * * * * * * * * * * * * //

dimensions      [0 2 -2 0 0 0 0];

internalField   nonuniform List<scalar> 
500
(
1.56659e+08
1.56629e+08
1.56553e+08
1.56432e+08
1.56268e+08
1.56062e+08
1.55814e+08
1.55524e+08
1.55193e+08
1.54821e+08
1.54408e+08
1.53955e+08
1.53463e+08
1.52931e+08
1.52361e+08
1.51751e+08
1.51105e+08
1.5042e+08
1.49699e+08
1.48942e+08
1.4815e+08
1.47322e+08
1.4646e+08
1.45565e+08
1.44637e+08
1.43677e+08
1.42686e+08
1.41664e+08
1.40612e+08
1.39532e+08
1.38424e+08
1.37288e+08
1.36126e+08
1.34938e+08
1.33726e+08
1.32491e+08
1.31232e+08
1.29952e+08
1.28651e+08
1.27329e+08
1.25989e+08
1.24631e+08
1.23255e+08
1.21864e+08
1.20456e+08
1.19035e+08
1.176e+08
1.16153e+08
1.14695e+08
1.13225e+08
1.11747e+08
1.10259e+08
1.08764e+08
1.07262e+08
1.05754e+08
1.0424e+08
1.02723e+08
1.01202e+08
9.9679e+07
9.81542e+07
9.66285e+07
9.51029e+07
9.35781e+07
9.2055e+07
9.05342e+07
8.90166e+07
8.75028e+07
8.59937e+07
8.44899e+07
8.29921e+07
8.15009e+07
8.00171e+07
7.85412e+07
7.70738e+07
7.56156e+07
7.41672e+07
7.2729e+07
7.13016e+07
6.98855e+07
6.84813e+07
6.70893e+07
6.57101e+07
6.4344e+07
6.29915e+07
6.1653e+07
6.03289e+07
5.90194e+07
5.7725e+07
5.64459e+07
5.51824e+07
5.39349e+07
5.27035e+07
5.14885e+07
5.02901e+07
4.91086e+07
4.7944e+07
4.67966e+07
4.56665e+07
4.45538e+07
4.34587e+07
4.23812e+07
4.13214e+07
4.02795e+07
3.92553e+07
3.8249e+07
3.72606e+07
3.629e+07
3.53374e+07
3.44026e+07
3.34856e+07
3.25863e+07
3.17048e+07
3.08409e+07
2.99946e+07
2.91657e+07
2.83541e+07
2.75598e+07
2.67826e+07
2.60223e+07
2.52789e+07
2.45522e+07
2.3842e+07
2.31481e+07
2.24704e+07
2.18088e+07
2.11629e+07
2.05326e+07
1.99178e+07
1.93181e+07
1.87335e+07
1.81636e+07
1.76083e+07
1.70674e+07
1.65406e+07
1.60277e+07
1.55285e+07
1.50427e+07
1.45701e+07
1.41105e+07
1.36636e+07
1.32291e+07
1.2807e+07
1.23968e+07
1.19984e+07
1.16115e+07
1.1236e+07
1.08714e+07
1.05177e+07
1.01745e+07
9.84169e+06
9.51895e+06
9.20607e+06
8.90282e+06
8.60896e+06
8.32427e+06
8.04852e+06
7.78149e+06
7.52295e+06
7.27268e+06
7.03047e+06
6.79611e+06
6.56938e+06
6.35008e+06
6.13799e+06
5.93293e+06
5.7347e+06
5.54309e+06
5.35792e+06
5.17899e+06
5.00614e+06
4.83917e+06
4.67792e+06
4.5222e+06
4.37184e+06
4.22669e+06
4.08658e+06
3.95136e+06
3.82086e+06
3.69494e+06
3.57345e+06
3.45625e+06
3.3432e+06
3.23416e+06
3.129e+06
3.02759e+06
2.9298e+06
2.83552e+06
2.74463e+06
2.65701e+06
2.57255e+06
2.49114e+06
2.41267e+06
2.33705e+06
2.26418e+06
2.19395e+06
2.12629e+06
2.06109e+06
1.99827e+06
1.93775e+06
1.87945e+06
1.82328e+06
1.76918e+06
1.71707e+06
1.66687e+06
1.61853e+06
1.57197e+06
1.52713e+06
1.48395e+06
1.44236e+06
1.40233e+06
1.36378e+06
1.32666e+06
1.29093e+06
1.25653e+06
1.22342e+06
1.19156e+06
1.16089e+06
1.13138e+06
1.10298e+06
1.07566e+06
1.04938e+06
1.0241e+06
999796
976423
953953
932355
911602
891663
872512
854124
836473
819535
803288
787710
772780
758477
744783
731678
719146
707172
695808
685031
674776
665009
655705
646843
638403
630361
622686
615336
608253
601346
594478
587429
579846
571150
560380
545920
525035
493193
444556
375339
295388
238284
219179
215858
215389
215322
215312
215310
215310
215310
215310
215310
215310
215310
215310
215310
215310
215310
215310
215310
215310
215310
215310
215310
215310
215310
215310
215310
215310
215310
215310
215310
215310
215310
215310
215310
215310
215310
215310
215310
215310
215310
215310
215310
215310
215310
215310
215310
215310
215310
215310
215310
215310
215310
215310
215310
215310
215310
215310
215310
215310
215310
215310
215310
215310
215310
215310
215310
215310
215310
215310
215310
215310
215310
215310
215310
215310
215310
215310
215310
215310
215310
215310
215310
215310
215310
215310
215310
215310
215310
215310
215310
215310
215310
215310
215310
215310
215310
215310
215310
215310
215310
215310
215310
215310
215310
215310
215310
215310
215310
215310
215310
215310
215310
215310
215310
215310
215310
215310
215310
215310
215310
215310
215310
215310
215310
215310
215310
215310
215310
215310
215310
215310
215310
215310
215310
215310
215310
215310
215310
215310
215310
215310
215310
215310
215310
215310
215310
215310
215310
215310
215310
215310
215310
215310
215310
215310
215310
215310
215310
215310
215310
215310
215310
215310
215310
215310
215310
215310
215310
215310
215310
215310
215310
215310
215310
215310
215310
215310
215310
215310
215310
215310
215310
215310
215310
215310
215310
215310
215310
215310
215310
215310
215310
215310
215310
215310
215310
215310
215310
215310
215310
215310
215310
215310
215310
215310
215310
215310
215310
215310
215310
215310
215310
215310
215310
215310
215310
215310
215310
215310
215310
215310
215310
215310
215310
215310
215310
215310
215310
215310
215310
215310
215310
215310
215310
215310
215310
)
;

boundaryField
{
    wedge0
    {
        type            wedge;
    }
    wedge1
    {
        type            wedge;
    }
    wedge2
    {
        type            wedge;
    }
    wedge3
    {
        type            wedge;
    }
    outlet
    {
        type            zeroGradient;
    }
    defaultFaces
    {
        type            empty;
    }
}


// ************************************************************************* //
