/*--------------------------------*- C++ -*----------------------------------*\
| =========                 |                                                 |
| \\      /  F ield         | OpenFOAM: The Open Source CFD Toolbox           |
|  \\    /   O peration     | Version:  2312                                  |
|   \\  /    A nd           | Website:  www.openfoam.com                      |
|    \\/     M anipulation  |                                                 |
\*---------------------------------------------------------------------------*/
FoamFile
{
    version     2.0;
    format      ascii;
    arch        "LSB;label=32;scalar=64";
    class       volVectorField;
    location    "0.00011";
    object      U;
}
// * * * * * * * * * * * * * * * * * * * * * * * * * * * * * * * * * * * * * //

dimensions      [0 1 -1 0 0 0 0];

internalField   nonuniform List<vector> 
500
(
(2.24732 -3.53634e-10 3.53862e-10)
(4.04626 -3.41541e-10 3.41443e-10)
(6.05283 -3.53396e-10 3.53304e-10)
(8.18411 -3.53346e-10 3.53772e-10)
(10.3651 -3.32022e-10 3.32183e-10)
(12.5703 -3.32631e-10 3.32636e-10)
(14.7888 -3.27762e-10 3.27784e-10)
(17.0154 -3.21638e-10 3.1975e-10)
(19.2475 -3.06219e-10 3.03267e-10)
(21.4832 -2.85931e-10 2.81822e-10)
(23.7217 -2.68236e-10 2.64236e-10)
(25.9621 -2.5186e-10 2.47935e-10)
(28.2041 -2.35109e-10 2.32985e-10)
(30.4473 -2.18224e-10 2.1765e-10)
(32.6915 -2.0138e-10 2.01362e-10)
(34.9365 -1.85362e-10 1.85342e-10)
(37.1821 -1.7088e-10 1.70886e-10)
(39.4283 -1.62931e-10 1.62953e-10)
(41.675 -1.54895e-10 1.54903e-10)
(43.9221 -1.51555e-10 1.51561e-10)
(46.1696 -1.4971e-10 1.4972e-10)
(48.4174 -1.48157e-10 1.48159e-10)
(50.6655 -1.45776e-10 1.45771e-10)
(52.9138 -1.45361e-10 1.45362e-10)
(55.1624 -1.43517e-10 1.43519e-10)
(57.4112 -1.39367e-10 1.39369e-10)
(59.6603 -1.36728e-10 1.3674e-10)
(61.9095 -1.34904e-10 1.34911e-10)
(64.1589 -1.29923e-10 1.29924e-10)
(66.4084 -1.25676e-10 1.25689e-10)
(68.6581 -1.21398e-10 1.21399e-10)
(70.908 -1.16918e-10 1.16919e-10)
(73.158 -1.10225e-10 1.10217e-10)
(75.4082 -1.04664e-10 1.04656e-10)
(77.6585 -1.00246e-10 1.00246e-10)
(79.9089 -9.58975e-11 9.58975e-11)
(82.1595 -9.20107e-11 9.20107e-11)
(84.4102 -8.87977e-11 8.87977e-11)
(86.661 -8.60936e-11 8.60936e-11)
(88.912 -8.33253e-11 8.33253e-11)
(91.1631 -7.91878e-11 7.91878e-11)
(93.4143 -7.3811e-11 7.3811e-11)
(95.6657 -6.83307e-11 6.83307e-11)
(97.9172 -6.35836e-11 6.35836e-11)
(100.169 -5.86744e-11 5.86744e-11)
(102.421 -5.33741e-11 5.33741e-11)
(104.672 -4.75543e-11 4.75543e-11)
(106.925 -4.23739e-11 4.23739e-11)
(109.177 -3.64105e-11 3.64105e-11)
(111.429 -3.25068e-11 3.25068e-11)
(113.681 -2.81439e-11 2.81439e-11)
(115.934 -2.37315e-11 2.37315e-11)
(118.187 -1.89728e-11 1.89728e-11)
(120.44 -1.45381e-11 1.45381e-11)
(122.693 -1.07725e-11 1.07725e-11)
(124.946 -7.621e-12 7.621e-12)
(127.199 -4.51773e-12 4.51773e-12)
(129.453 -1.95356e-12 1.95356e-12)
(131.707 4.05651e-13 -4.05651e-13)
(133.96 2.69299e-12 -2.69299e-12)
(136.214 3.70676e-12 -3.70676e-12)
(138.469 4.57135e-12 -4.57135e-12)
(140.723 5.05215e-12 -5.05215e-12)
(142.978 5.16986e-12 -5.16986e-12)
(145.233 4.97868e-12 -4.97868e-12)
(147.488 4.734e-12 -4.734e-12)
(149.743 4.74614e-12 -4.74614e-12)
(151.998 5.07289e-12 -5.07289e-12)
(154.254 4.50475e-12 -4.50475e-12)
(156.51 4.15928e-12 -4.15928e-12)
(158.766 3.99937e-12 -3.99937e-12)
(161.022 3.86321e-12 -3.86321e-12)
(163.279 3.70216e-12 -3.70216e-12)
(165.536 3.75076e-12 -3.75076e-12)
(167.793 3.79308e-12 -3.79313e-12)
(170.05 4.02572e-12 -4.02589e-12)
(172.308 3.5974e-12 -3.59616e-12)
(174.566 3.30113e-12 -3.29948e-12)
(176.824 3.2235e-12 -3.22217e-12)
(179.082 3.10031e-12 -3.09988e-12)
(181.341 2.8886e-12 -2.85865e-12)
(183.6 2.66303e-12 -2.62174e-12)
(185.86 2.39617e-12 -2.33902e-12)
(188.12 1.60814e-12 -1.53654e-12)
(190.38 6.50096e-13 -5.63992e-13)
(192.641 -4.76947e-13 5.43983e-13)
(194.901 -1.14261e-12 1.18919e-12)
(197.163 -1.73853e-12 1.76333e-12)
(199.425 -1.97155e-12 1.97608e-12)
(201.687 -2.09735e-12 2.10171e-12)
(203.949 -2.26465e-12 2.22754e-12)
(206.212 -2.17443e-12 2.0944e-12)
(208.476 -2.07518e-12 2.15876e-12)
(210.74 -1.99509e-12 2.07343e-12)
(213.004 -1.67713e-12 1.74788e-12)
(215.269 -1.3195e-12 1.29814e-12)
(217.535 -1.17687e-12 1.06674e-12)
(219.801 -9.12987e-13 9.11476e-13)
(222.068 -6.63679e-13 6.72276e-13)
(224.335 -3.75413e-13 3.95273e-13)
(226.603 -2.79776e-13 3.12109e-13)
(228.871 -1.90386e-13 2.3794e-13)
(231.141 -7.87015e-15 5.90617e-14)
(233.41 0 -4.58644e-14)
(235.681 1.0393e-13 -3.30123e-13)
(237.952 3.78222e-13 -5.78618e-13)
(240.224 5.01247e-13 -6.75595e-13)
(242.497 7.95272e-13 -9.42496e-13)
(244.771 9.50477e-13 -1.07012e-12)
(247.045 1.26927e-12 -1.35984e-12)
(249.321 1.7589e-12 -1.81911e-12)
(251.597 2.37572e-12 -2.42172e-12)
(253.874 2.62953e-12 -2.66075e-12)
(256.152 2.79947e-12 -2.8186e-12)
(258.432 3.11952e-12 -3.13215e-12)
(260.712 3.10357e-12 -3.10973e-12)
(262.993 2.73835e-12 -2.73662e-12)
(265.276 2.4259e-12 -2.43466e-12)
(267.56 2.21762e-12 -2.21195e-12)
(269.844 2.0131e-12 -2.01012e-12)
(272.131 2.12959e-12 -2.12969e-12)
(274.418 2.2289e-12 -2.2287e-12)
(276.707 2.04697e-12 -2.04659e-12)
(278.998 1.90023e-12 -1.89978e-12)
(281.289 1.67593e-12 -1.67575e-12)
(283.583 1.53135e-12 -1.53144e-12)
(285.878 1.29414e-12 -1.29413e-12)
(288.175 9.52738e-13 -9.52806e-13)
(290.473 6.59654e-13 -6.59868e-13)
(292.773 4.1284e-13 -4.1285e-13)
(295.075 2.20416e-13 -2.20493e-13)
(297.38 8.41915e-14 -8.40956e-14)
(299.686 -8.00815e-16 7.9015e-16)
(301.994 -1.71266e-13 1.71262e-13)
(304.305 -3.08652e-13 3.0865e-13)
(306.617 -2.60217e-13 2.60216e-13)
(308.933 -1.39186e-13 1.39186e-13)
(311.25 -1.97975e-13 1.97975e-13)
(313.571 -2.05179e-13 2.05179e-13)
(315.894 -2.04758e-13 2.04758e-13)
(318.22 -2.04263e-13 2.04263e-13)
(320.548 -2.02967e-13 2.02967e-13)
(322.88 -2.26064e-13 2.26064e-13)
(325.215 -2.00327e-13 2.00327e-13)
(327.554 -1.98515e-13 1.98515e-13)
(329.896 -1.76035e-13 1.76035e-13)
(332.241 -2.02676e-13 2.02676e-13)
(334.591 -1.88934e-13 1.88934e-13)
(336.944 -1.26272e-13 1.26272e-13)
(339.301 -2.15125e-14 2.15123e-14)
(341.663 -2.89752e-14 2.89751e-14)
(344.029 -8.36242e-14 8.3624e-14)
(346.399 -2.34388e-14 2.34385e-14)
(348.775 1.08464e-14 -1.08468e-14)
(351.155 -6.90894e-14 6.91811e-14)
(353.541 -5.30817e-14 5.32569e-14)
(355.932 -7.24079e-14 7.25173e-14)
(358.329 -1.24483e-13 1.2456e-13)
(360.732 -8.41891e-14 8.43014e-14)
(363.141 -1.41334e-13 1.41483e-13)
(365.557 -1.8618e-13 1.86191e-13)
(367.979 -1.85111e-13 1.85134e-13)
(370.409 -1.91234e-13 1.91279e-13)
(372.845 -3.03676e-13 3.03734e-13)
(375.29 -3.08586e-13 3.08605e-13)
(377.742 -3.16587e-13 3.16627e-13)
(380.203 -3.05735e-13 3.05875e-13)
(382.672 -2.68472e-13 2.68649e-13)
(385.15 -2.66728e-13 2.66992e-13)
(387.638 -2.22477e-13 2.22662e-13)
(390.136 -2.18392e-13 2.18441e-13)
(392.644 -2.63974e-13 2.63517e-13)
(395.162 -2.88779e-13 2.87668e-13)
(397.692 -2.90916e-13 2.90685e-13)
(400.233 -3.12526e-13 3.12303e-13)
(402.786 -3.07923e-13 3.0779e-13)
(405.352 -2.62942e-13 2.62868e-13)
(407.931 -2.26178e-13 2.26074e-13)
(410.524 -2.15986e-13 2.15914e-13)
(413.131 -1.61857e-13 1.61848e-13)
(415.752 -1.20952e-13 1.21036e-13)
(418.39 -9.90874e-14 9.93238e-14)
(421.043 -6.46125e-14 6.48268e-14)
(423.713 -3.41141e-14 3.42776e-14)
(426.4 -9.38186e-15 9.49968e-15)
(429.106 0 0)
(431.83 0 0)
(434.574 0 0)
(437.338 0 0)
(440.124 0 0)
(442.931 2.10389e-14 -2.10389e-14)
(445.762 2.93107e-14 -2.93107e-14)
(448.617 1.28789e-14 -1.28789e-14)
(451.496 1.48652e-15 -1.48652e-15)
(454.401 1.13504e-14 -1.13504e-14)
(457.333 0 0)
(460.292 -1.63608e-14 1.63608e-14)
(463.28 -2.26301e-14 2.26301e-14)
(466.299 -6.85045e-15 6.85045e-15)
(469.348 1.90334e-14 -1.90217e-14)
(472.43 5.37004e-14 -5.36634e-14)
(475.545 5.35906e-14 -5.35169e-14)
(478.694 4.06882e-14 -4.06215e-14)
(481.88 2.53133e-14 -2.52458e-14)
(485.102 1.16371e-14 -1.15802e-14)
(488.363 3.73265e-15 -3.67672e-15)
(491.664 1.05784e-14 -1.05249e-14)
(495.006 3.0195e-15 -2.9666e-15)
(498.39 8.99253e-15 -8.94354e-15)
(501.819 3.12999e-16 -2.52944e-16)
(505.293 -7.32306e-16 7.82595e-16)
(508.814 -3.83737e-15 3.85874e-15)
(512.383 -1.38035e-14 1.3817e-14)
(516.003 -2.44275e-14 2.44496e-14)
(519.674 -4.82454e-14 4.82667e-14)
(523.398 -6.64755e-14 6.64991e-14)
(527.176 -6.85661e-14 6.85965e-14)
(531.011 -6.71045e-14 6.71402e-14)
(534.904 -5.72878e-14 5.7316e-14)
(538.856 -4.82516e-14 4.8272e-14)
(542.869 -3.99776e-14 3.99971e-14)
(546.945 -3.23771e-14 3.23878e-14)
(551.085 -2.54179e-14 2.54248e-14)
(555.291 -1.86252e-14 1.86252e-14)
(559.564 1.53154e-15 -1.53154e-15)
(563.906 3.98123e-15 -3.98123e-15)
(568.318 -1.92354e-15 1.92354e-15)
(572.802 -2.07585e-14 2.07585e-14)
(577.359 -1.67931e-14 1.67931e-14)
(581.99 -1.5067e-14 1.5067e-14)
(586.698 -3.4623e-14 3.4623e-14)
(591.482 -2.76699e-14 2.76699e-14)
(596.344 -2.06645e-14 2.06645e-14)
(601.285 -1.96369e-14 1.96369e-14)
(606.306 -1.34936e-14 1.34936e-14)
(611.407 -7.93329e-15 7.93329e-15)
(616.589 -6.75183e-15 6.75183e-15)
(621.851 -2.02472e-15 2.02472e-15)
(627.194 -2.91804e-15 2.91804e-15)
(632.616 -3.17535e-15 3.17535e-15)
(638.13 -1.63303e-14 1.63303e-14)
(643.725 -1.12719e-14 1.12719e-14)
(649.392 -2.26405e-14 2.26405e-14)
(655.126 -1.01177e-14 1.01177e-14)
(660.919 1.1562e-15 -1.1562e-15)
(666.757 1.12718e-14 -1.12718e-14)
(672.619 1.02773e-15 -1.02773e-15)
(678.473 1.01076e-15 -1.01076e-15)
(684.265 9.64849e-15 -9.64849e-15)
(689.915 9.09271e-16 -9.09271e-16)
(695.289 -1.91349e-16 1.91349e-16)
(700.18 2.23039e-15 -2.23039e-15)
(704.247 1.83148e-15 -1.83148e-15)
(706.944 5.7457e-16 -5.7457e-16)
(707.379 0 -3.24624e-35)
(704.102 0 3.05574e-35)
(694.739 -5.69192e-16 5.69192e-16)
(675.435 -6.29677e-15 6.29677e-15)
(640.018 -4.4419e-15 4.4419e-15)
(579.097 -2.38187e-15 2.38187e-15)
(481.249 -1.11098e-15 1.11098e-15)
(340.929 0 0)
(179.525 1.12145e-15 -1.12145e-15)
(58.8656 5.56744e-15 -5.56744e-15)
(12.0274 1.45261e-14 -1.45261e-14)
(1.97161 1.35551e-14 -1.35551e-14)
(0.306488 1.49406e-14 -1.49406e-14)
(0.0470179 6.78792e-15 -6.78792e-15)
(0.00716403 1.81571e-15 -1.81571e-15)
(0.00108527 0 0)
(0.00016349 0 0)
(2.44933e-05 0 0)
(3.64949e-06 0 0)
(5.40842e-07 0 0)
(7.97304e-08 -1.48964e-15 1.48964e-15)
(1.17e-08 -5.95579e-15 5.95579e-15)
(1.72482e-09 -1.48984e-15 1.48984e-15)
(2.80364e-10 0 0)
(7.25906e-11 0 0)
(2.32457e-11 0 0)
(1.08524e-11 0 0)
(1.58889e-11 9.41209e-16 -9.41209e-16)
(4.03286e-12 4.71779e-15 -4.71779e-15)
(-1.19042e-11 0 0)
(-1.64523e-11 -4.65831e-15 4.65831e-15)
(-1.86156e-11 -9.34518e-16 9.34518e-16)
(-2.13167e-11 0 0)
(-1.0518e-11 0 0)
(2.97327e-12 -2.71623e-15 2.71623e-15)
(4.95932e-12 0 0)
(2.55014e-12 0 0)
(4.90332e-12 1.77854e-15 -1.77854e-15)
(7.52432e-12 -1.75774e-15 1.75774e-15)
(2.20144e-12 0 0)
(8.5235e-13 0 0)
(1.13776e-11 1.72855e-15 -1.72855e-15)
(1.7131e-11 -1.71002e-15 1.71002e-15)
(1.43844e-11 0 0)
(6.89611e-12 0 0)
(1.37527e-12 0 0)
(-3.06529e-12 -2.50217e-15 2.50217e-15)
(-3.93486e-12 1.34968e-18 -1.34968e-18)
(2.62471e-12 -2.46841e-15 2.46841e-15)
(8.39356e-12 0 0)
(4.27629e-12 2.43646e-15 -2.43646e-15)
(-2.3743e-12 0 0)
(-4.97441e-12 0 0)
(-1.01255e-11 0 0)
(-1.12556e-11 -4.75072e-15 4.75072e-15)
(-2.02181e-11 -4.73557e-15 4.73557e-15)
(-2.76011e-11 -1.60424e-17 1.60424e-17)
(-3.42871e-11 0 0)
(-2.78143e-11 0 0)
(-8.20754e-12 0 0)
(4.02366e-12 2.2856e-15 -2.2856e-15)
(9.42086e-12 0 0)
(7.72272e-12 0 0)
(2.8003e-11 -3.84066e-16 3.84066e-16)
(4.01336e-11 -5.23578e-15 5.23578e-15)
(2.57523e-11 -1.44991e-14 1.44991e-14)
(2.0207e-13 -1.9289e-14 1.9289e-14)
(-7.75805e-12 -1.96617e-14 1.96617e-14)
(8.20578e-12 -1.5671e-14 1.5671e-14)
(1.84474e-11 -1.6036e-14 1.6036e-14)
(1.48037e-11 -1.20956e-14 1.20956e-14)
(2.98626e-12 -3.89607e-15 3.89607e-15)
(-3.91527e-12 0 0)
(-9.8393e-12 0 0)
(-1.57855e-11 2.09337e-15 -2.09337e-15)
(-8.4525e-12 0 0)
(7.68049e-12 0 0)
(1.43724e-11 0 0)
(1.43021e-11 0 0)
(7.81027e-12 -4.06352e-15 4.06352e-15)
(-2.67898e-12 -4.05191e-15 4.05191e-15)
(-1.11586e-11 -1.27789e-17 1.27789e-17)
(-1.15708e-11 0 0)
(-1.77268e-11 0 0)
(-2.22806e-11 0 0)
(-2.13676e-11 0 0)
(-2.7916e-11 0 0)
(-1.59379e-11 -1.93684e-15 1.93684e-15)
(-4.17765e-12 0 0)
(-8.71976e-12 0 0)
(-1.4155e-11 1.90627e-15 -1.90627e-15)
(1.32978e-12 2.80426e-18 -2.80426e-18)
(1.69274e-11 1.88296e-15 -1.88296e-15)
(9.54259e-12 0 0)
(-2.53438e-12 -3.09653e-15 3.09653e-15)
(-4.7964e-12 -2.46339e-15 2.46339e-15)
(1.47668e-12 -5.52349e-15 5.52349e-15)
(2.82133e-13 -4.8968e-15 4.8968e-15)
(7.54478e-12 -6.22399e-16 6.22399e-16)
(1.56074e-11 0 0)
(1.38549e-11 0 0)
(5.54091e-12 1.78733e-15 -1.78733e-15)
(-3.68363e-13 0 0)
(1.80101e-12 -4.24138e-15 4.24138e-15)
(-9.21317e-14 -4.93167e-15 4.93167e-15)
(-6.67051e-12 -2.10969e-15 2.10969e-15)
(-1.43697e-11 -2.78994e-15 2.78994e-15)
(-1.85233e-11 0 0)
(-1.29667e-11 0 0)
(7.28456e-12 -1.71044e-15 1.71044e-15)
(5.32565e-12 1.90942e-18 -1.90942e-18)
(2.5796e-12 -1.69181e-15 1.69181e-15)
(7.02515e-12 0 0)
(-1.02563e-11 1.67412e-15 -1.67412e-15)
(-2.18997e-11 0 0)
(-1.05378e-11 0 0)
(-6.51033e-12 -7.97473e-16 7.97473e-16)
(-1.91204e-11 -4.87668e-15 4.87668e-15)
(-1.4758e-11 -5.66569e-15 5.66569e-15)
(-7.27348e-12 -9.69894e-15 9.69894e-15)
(-1.93849e-12 -1.04785e-14 1.04785e-14)
(-2.00411e-13 -8.03877e-15 8.03877e-15)
(7.87224e-14 -2.4142e-15 2.4142e-15)
(-7.71834e-13 0 0)
(-9.64836e-12 0 0)
(-9.18379e-12 1.57117e-15 -1.57117e-15)
(-1.72066e-11 2.71733e-18 -2.71733e-18)
(-2.71023e-11 1.55333e-15 -1.55333e-15)
(-2.19816e-11 0 0)
(-1.16762e-11 0 0)
(6.0391e-13 -1.52909e-15 1.52909e-15)
(3.72029e-12 0 0)
(3.66179e-12 0 0)
(8.20245e-12 0 0)
(1.25526e-11 2.99657e-15 -2.99657e-15)
(8.68286e-12 2.98777e-15 -2.98777e-15)
(1.04082e-11 8.73602e-18 -8.73602e-18)
(2.06785e-11 0 0)
(1.02364e-11 0 0)
(-4.26156e-12 1.45894e-15 -1.45894e-15)
(-1.17382e-11 0 0)
(-7.41744e-12 0 0)
(3.0151e-12 0 0)
(1.52052e-12 0 0)
(-7.42739e-12 0 0)
(-1.31532e-11 0 0)
(-5.20378e-12 0 0)
(6.15625e-12 0 0)
(1.73376e-11 5.96209e-16 -5.96209e-16)
(2.79151e-11 3.97407e-15 -3.97407e-15)
(2.48404e-11 1.01028e-14 -1.01028e-14)
(1.66218e-11 1.34447e-14 -1.34447e-14)
(1.4617e-11 1.40261e-14 -1.40261e-14)
(1.27872e-11 6.41929e-15 -6.41929e-15)
(9.3092e-14 1.56298e-15 -1.56298e-15)
(-1.14988e-11 -5.68949e-16 5.68949e-16)
(-1.19826e-11 0 0)
(-1.17963e-11 0 0)
(-6.80429e-12 0 0)
(-2.51683e-12 0 0)
(6.94971e-12 0 0)
(1.56138e-11 0 0)
(1.82442e-11 0 0)
(1.41117e-11 0 0)
(1.08849e-11 -8.63302e-16 8.63302e-16)
(2.19412e-11 8.52825e-16 -8.52825e-16)
(2.62561e-11 0 0)
(2.34648e-11 0 0)
(1.71145e-11 -1.26742e-15 1.26742e-15)
(1.15471e-11 -1.79693e-18 1.79693e-18)
(2.82447e-12 -1.2552e-15 1.2552e-15)
(-6.16826e-12 -1.53986e-18 1.53986e-18)
(-5.59464e-12 -1.24358e-15 1.24358e-15)
(-5.90423e-12 0 0)
(-1.06052e-11 -8.21083e-16 8.21083e-16)
(-1.07351e-11 8.16004e-16 -8.16004e-16)
(-5.22732e-12 0 0)
(-1.81075e-11 1.21359e-15 -1.21359e-15)
(-1.67503e-11 -1.82873e-18 1.82873e-18)
(-3.22857e-12 1.20156e-15 -1.20156e-15)
(3.78737e-12 0 0)
(1.07562e-11 7.96168e-16 -7.96168e-16)
(1.32535e-11 -7.89788e-16 7.89788e-16)
(1.41882e-12 0 0)
(-8.39974e-12 -9.22231e-16 9.22231e-16)
(-2.9434e-12 -4.1856e-15 4.1856e-15)
(-5.98364e-12 -9.76837e-15 9.76837e-15)
(-1.23319e-11 -8.35124e-15 8.35124e-15)
(-8.10528e-12 0 0)
(-1.91529e-11 8.27229e-15 -8.27229e-15)
(-2.16837e-11 9.62653e-15 -9.62653e-15)
(-7.44196e-12 4.1287e-15 -4.1287e-15)
(-6.07504e-12 9.26006e-16 -9.26006e-16)
(1.19022e-11 0 0)
(4.03373e-11 9.53667e-16 -9.53667e-16)
(4.39241e-11 4.14438e-15 -4.14438e-15)
(2.32524e-11 6.24716e-16 -6.24716e-16)
(2.4141e-11 -1.7224e-15 1.7224e-15)
(2.80929e-11 -6.27027e-15 6.27027e-15)
(1.48653e-11 -4.19079e-15 4.19079e-15)
(6.03966e-12 -4.31205e-15 4.31205e-15)
(-3.56204e-12 -6.61494e-15 6.61494e-15)
(-2.21798e-12 -1.1081e-14 1.1081e-14)
(-1.46955e-12 -1.76911e-14 1.76911e-14)
(-5.58573e-12 -2.61922e-14 2.61922e-14)
(-7.94703e-12 -2.82186e-14 2.82186e-14)
(-8.5843e-12 -2.77027e-14 2.77027e-14)
(-4.12923e-12 -2.50657e-14 2.50657e-14)
(-1.3638e-11 -1.60813e-14 1.60813e-14)
(-1.92256e-11 -8.88442e-15 8.88442e-15)
(-8.69234e-12 -3.8172e-15 3.8172e-15)
(-7.12834e-12 -8.61678e-16 8.61678e-16)
(2.9454e-13 0 0)
(2.07114e-11 0 0)
(1.05004e-11 0 0)
(-8.82131e-12 0 0)
(-1.95653e-11 0 0)
(-1.21807e-11 6.73757e-16 -6.73757e-16)
(6.14033e-12 3.28787e-15 -3.28787e-15)
(-1.93637e-12 -1.70447e-16 1.70447e-16)
(-1.31064e-11 -5.62458e-15 5.62458e-15)
(-1.95308e-12 -5.04451e-15 5.04451e-15)
(1.7455e-11 -6.4613e-15 6.4613e-15)
(2.67086e-11 -1.91121e-15 1.91121e-15)
(1.85442e-11 6.41744e-16 -6.41744e-16)
(-7.57137e-12 3.70589e-15 -3.70589e-15)
(-3.20359e-11 8.70114e-16 -8.70114e-16)
(-3.54779e-11 0 0)
(-2.38325e-11 0 0)
(-2.38225e-11 -3.36087e-16 3.36087e-16)
(-2.78698e-11 -2.59913e-15 2.59913e-15)
(-9.99746e-12 -6.77365e-15 6.77365e-15)
(9.24785e-12 -5.18944e-15 5.18944e-15)
(8.4088e-12 -9.33035e-15 9.33035e-15)
(-8.62829e-12 -1.53514e-14 1.53514e-14)
(-2.22196e-11 -2.32043e-14 2.32043e-14)
(-1.45436e-11 -2.53759e-14 2.53759e-14)
(2.84539e-13 -2.35407e-14 2.35407e-14)
(1.3785e-11 -1.61098e-14 1.61098e-14)
(1.81187e-11 -1.05328e-14 1.05328e-14)
(1.6453e-11 -6.83037e-15 6.83037e-15)
(3.00222e-11 -4.98749e-15 4.98749e-15)
(2.88195e-11 -4.9891e-15 4.9891e-15)
(1.73437e-11 -6.82056e-15 6.82056e-15)
(4.52398e-12 -3.17566e-15 3.17566e-15)
(-1.04705e-11 -1.36082e-15 1.36082e-15)
)
;

boundaryField
{
    wedge0
    {
        type            wedge;
    }
    wedge1
    {
        type            wedge;
    }
    wedge2
    {
        type            wedge;
    }
    wedge3
    {
        type            wedge;
    }
    outlet
    {
        type            zeroGradient;
    }
    defaultFaces
    {
        type            empty;
    }
}


// ************************************************************************* //
