/*--------------------------------*- C++ -*----------------------------------*\
| =========                 |                                                 |
| \\      /  F ield         | OpenFOAM: The Open Source CFD Toolbox           |
|  \\    /   O peration     | Version:  2312                                  |
|   \\  /    A nd           | Website:  www.openfoam.com                      |
|    \\/     M anipulation  |                                                 |
\*---------------------------------------------------------------------------*/
FoamFile
{
    version     2.0;
    format      ascii;
    arch        "LSB;label=32;scalar=64";
    class       volScalarField;
    location    "0.038";
    object      p;
}
// * * * * * * * * * * * * * * * * * * * * * * * * * * * * * * * * * * * * * //

dimensions      [1 -1 -2 0 0 0 0];

internalField   nonuniform List<scalar> 
100
(
39917.6
39899.7
39344.1
39327.8
38748.5
38723.9
38187.2
38092.6
37641.9
37458.9
37089
36841.1
36520.2
36241
35941.2
35652.3
35359.8
35070.2
34781
34493.3
34206.9
33921.8
33638.4
33356.5
33076.5
32797.9
32522.3
32246.7
31977
31703.1
31443.3
31166.6
30924.8
30636
30426.4
30110.1
29952.1
29590.6
29502.4
29085.2
29071.8
28608.3
28650.5
28177
28230.9
27804.3
27813.2
27496.8
27403.8
27258.9
27009.1
27098.2
26631.6
27023.5
26274.7
27033.2
25953.5
27102.5
25701.7
27181.7
25562.8
27212.5
25568.1
27157.4
25712.2
27023.3
25945.8
26859.8
26194.7
26729.2
26398.8
26668.1
26540
26674.6
26639.7
26729
26736.8
26827.2
26881.2
27020.5
27188.6
27514.2
28018.3
28854.3
30022.8
31510.5
33083.7
34558.8
35733.9
36604.7
37170.3
37546.8
37763.5
37914.3
37993.1
38064.6
38099.8
38146.9
38170.2
38206.7
)
;

boundaryField
{
    sides
    {
        type            zeroGradient;
    }
    empty
    {
        type            empty;
    }
}


// ************************************************************************* //
