/*--------------------------------*- C++ -*----------------------------------*\
| =========                 |                                                 |
| \\      /  F ield         | OpenFOAM: The Open Source CFD Toolbox           |
|  \\    /   O peration     | Version:  2312                                  |
|   \\  /    A nd           | Website:  www.openfoam.com                      |
|    \\/     M anipulation  |                                                 |
\*---------------------------------------------------------------------------*/
FoamFile
{
    version     2.0;
    format      ascii;
    arch        "LSB;label=32;scalar=64";
    class       volScalarField;
    location    "0.038";
    object      rho;
}
// * * * * * * * * * * * * * * * * * * * * * * * * * * * * * * * * * * * * * //

dimensions      [1 -3 0 0 0 0 0];

internalField   nonuniform List<scalar> 
100
(
0.562855
0.559892
0.557004
0.554142
0.551538
0.549043
0.546545
0.544306
0.541869
0.539735
0.537383
0.535251
0.532989
0.530839
0.528644
0.526496
0.52435
0.52223
0.52013
0.518059
0.516019
0.514013
0.512043
0.51011
0.508211
0.506341
0.504489
0.502651
0.500805
0.498955
0.497057
0.495151
0.493146
0.49116
0.489006
0.486944
0.484629
0.482511
0.480066
0.477907
0.475419
0.473211
0.470806
0.468538
0.46634
0.464025
0.46212
0.45981
0.458253
0.45601
0.454857
0.452714
0.45204
0.450005
0.449854
0.447971
0.448272
0.446682
0.447195
0.44614
0.44651
0.446229
0.446149
0.446722
0.446113
0.447347
0.446424
0.44791
0.447052
0.448369
0.447876
0.448818
0.448759
0.449393
0.449659
0.450213
0.450732
0.451492
0.452462
0.453969
0.456321
0.460288
0.466854
0.477132
0.491473
0.508797
0.526706
0.542694
0.555247
0.564157
0.570036
0.57373
0.575987
0.577375
0.578265
0.578867
0.5793
0.579652
0.579972
0.580192
)
;

boundaryField
{
    sides
    {
        type            zeroGradient;
    }
    empty
    {
        type            empty;
    }
}


// ************************************************************************* //
