/*--------------------------------*- C++ -*----------------------------------*\
| =========                 |                                                 |
| \\      /  F ield         | OpenFOAM: The Open Source CFD Toolbox           |
|  \\    /   O peration     | Version:  2312                                  |
|   \\  /    A nd           | Website:  www.openfoam.com                      |
|    \\/     M anipulation  |                                                 |
\*---------------------------------------------------------------------------*/
FoamFile
{
    version     2.0;
    format      ascii;
    arch        "LSB;label=32;scalar=64";
    class       volVectorField;
    location    "0.038";
    object      U;
}
// * * * * * * * * * * * * * * * * * * * * * * * * * * * * * * * * * * * * * //

dimensions      [0 1 -1 0 0 0 0];

internalField   nonuniform List<vector> 
100
(
(150.987 0 0)
(153.38 0 0)
(155.769 0 0)
(158.249 0 0)
(160.691 0 0)
(163.032 0 0)
(165.536 0 0)
(167.783 0 0)
(170.284 0 0)
(172.519 0 0)
(174.958 0 0)
(177.222 0 0)
(179.591 0 0)
(181.879 0 0)
(184.2 0 0)
(186.492 0 0)
(188.787 0 0)
(191.071 0 0)
(193.35 0 0)
(195.622 0 0)
(197.888 0 0)
(200.148 0 0)
(202.401 0 0)
(204.647 0 0)
(206.885 0 0)
(209.113 0 0)
(211.334 0 0)
(213.539 0 0)
(215.741 0 0)
(217.918 0 0)
(220.103 0 0)
(222.242 0 0)
(224.418 0 0)
(226.505 0 0)
(228.681 0 0)
(230.703 0 0)
(232.88 0 0)
(234.834 0 0)
(236.995 0 0)
(238.896 0 0)
(240.992 0 0)
(242.875 0 0)
(244.842 0 0)
(246.739 0 0)
(248.519 0 0)
(250.434 0 0)
(251.994 0 0)
(253.902 0 0)
(255.22 0 0)
(257.092 0 0)
(258.135 0 0)
(259.957 0 0)
(260.683 0 0)
(262.445 0 0)
(262.84 0 0)
(264.497 0 0)
(264.633 0 0)
(266.065 0 0)
(266.124 0 0)
(267.159 0 0)
(267.377 0 0)
(267.868 0 0)
(268.422 0 0)
(268.353 0 0)
(269.251 0 0)
(268.788 0 0)
(269.854 0 0)
(269.285 0 0)
(270.263 0 0)
(269.851 0 0)
(270.568 0 0)
(270.414 0 0)
(270.855 0 0)
(270.889 0 0)
(271.134 0 0)
(271.204 0 0)
(271.287 0 0)
(271.207 0 0)
(270.974 0 0)
(270.363 0 0)
(269.154 0 0)
(266.846 0 0)
(262.854 0 0)
(256.632 0 0)
(248.211 0 0)
(238.458 0 0)
(228.821 0 0)
(220.588 0 0)
(214.406 0 0)
(210.245 0 0)
(207.697 0 0)
(206.28 0 0)
(205.594 0 0)
(205.353 0 0)
(205.365 0 0)
(205.518 0 0)
(205.752 0 0)
(206.027 0 0)
(206.325 0 0)
(206.563 0 0)
)
;

boundaryField
{
    sides
    {
        type            mywaveTransmissive;
        gamma           1.4;
        value           nonuniform List<vector> 2((206.676 0 0) (150.523 0 0));
    }
    empty
    {
        type            empty;
    }
}


// ************************************************************************* //
