0.000749886 	1.45028e+06 	0.000670529 	7.37189 	-9.46697e-09 	1.02009e-08
0.0016069 	1.45033e+06 	0.000670655 	14.9919 	-1.00134e-08 	1.07495e-08
0.0025654 	1.45035e+06 	0.000670885 	23.5178 	-1.07266e-08 	1.14658e-08
0.00354676 	1.45037e+06 	0.000671247 	32.2694 	-1.13142e-08 	1.20406e-08
0.0045362 	1.45038e+06 	0.000671772 	41.1176 	-1.06763e-08 	1.13615e-08
0.00552938 	1.45039e+06 	0.000672494 	50.0264 	-1.11548e-08 	1.18148e-08
0.0065246 	1.4504e+06 	0.000673444 	58.983 	-1.15366e-08 	1.21464e-08
0.00752105 	1.45041e+06 	0.000674655 	67.9763 	-1.22685e-08 	1.28435e-08
0.00851829 	1.45042e+06 	0.000676163 	77.0042 	-1.20792e-08 	1.26322e-08
0.00951608 	1.45043e+06 	0.000678002 	86.0798 	-1.12267e-08 	1.17655e-08
0.0105143 	1.45044e+06 	0.000680207 	95.185 	-1.0364e-08 	1.0903e-08
0.0115127 	1.45046e+06 	0.000682816 	104.324 	-9.27984e-09 	9.82135e-09
0.0125114 	1.45047e+06 	0.000685867 	113.494 	-8.31717e-09 	8.78365e-09
0.0135103 	1.45049e+06 	0.000689402 	122.697 	-7.15433e-09 	7.55662e-09
0.0145093 	1.4505e+06 	0.000693464 	131.935 	-5.77598e-09 	6.13035e-09
0.0155084 	1.45052e+06 	0.000698097 	141.213 	-4.16868e-09 	4.48055e-09
0.0165076 	1.45054e+06 	0.000703351 	150.547 	-2.31665e-09 	2.58084e-09
0.0175069 	1.45056e+06 	0.000709278 	159.947 	-1.25904e-09 	1.47293e-09
0.0185062 	1.45057e+06 	0.000715933 	169.428 	-3.73651e-10 	5.01825e-10
0.0195056 	1.45059e+06 	0.00072338 	178.989 	-1.47962e-10 	2.61459e-10
0.020505 	1.45061e+06 	0.000731684 	188.63 	-1.22667e-10 	2.3837e-10
0.0215045 	1.45063e+06 	0.00074092 	198.352 	-5.24132e-11 	2.36551e-10
0.022504 	1.45065e+06 	0.000751171 	208.157 	-2.78315e-10 	5.35556e-10
0.0235035 	1.45067e+06 	0.000762525 	218.047 	-7.31791e-10 	9.24097e-10
0.0245031 	1.45068e+06 	0.000775085 	228.028 	-9.47544e-10 	1.09136e-09
0.0255027 	1.4507e+06 	0.000788964 	238.111 	-9.2441e-10 	1.01916e-09
0.0265023 	1.45072e+06 	0.000804288 	248.308 	-1.01079e-09 	1.15975e-09
0.0275019 	1.45074e+06 	0.000821201 	258.63 	-1.39972e-09 	1.53158e-09
0.0285015 	1.45077e+06 	0.000839867 	269.083 	-1.16242e-09 	1.29187e-09
0.0295012 	1.45079e+06 	0.00086047 	279.678 	-1.04645e-09 	1.15421e-09
0.0305008 	1.45081e+06 	0.000883222 	290.426 	-9.77013e-10 	1.06572e-09
0.0315005 	1.45083e+06 	0.000908367 	301.343 	-1.16753e-09 	1.23405e-09
0.0325002 	1.45085e+06 	0.000936185 	312.448 	-9.00552e-10 	9.38364e-10
0.0334999 	1.45088e+06 	0.000967003 	323.759 	-7.5665e-10 	7.58526e-10
0.0344996 	1.4509e+06 	0.0010012 	335.292 	-7.24384e-10 	7.24439e-10
0.0354993 	1.45092e+06 	0.00103921 	347.062 	-7.47585e-10 	7.47586e-10
0.036499 	1.45095e+06 	0.00108157 	359.124 	-7.3258e-10 	7.32581e-10
0.0374987 	1.45097e+06 	0.00112889 	371.31 	-7.92556e-10 	7.92556e-10
0.0384985 	1.45106e+06 	0.00118196 	383.635 	-8.23309e-10 	8.23309e-10
0.0394982 	1.4511e+06 	0.00124158 	393.305 	-8.49024e-10 	8.49024e-10
0.040498 	1.451e+06 	0.00130775 	396.309 	-8.92542e-10 	8.92542e-10
0.0414977 	1.45113e+06 	0.00138004 	398.341 	-8.37258e-10 	8.37258e-10
0.0424975 	1.45115e+06 	0.00145805 	404.541 	-8.31319e-10 	8.31319e-10
0.0434972 	1.45114e+06 	0.00154203 	412.853 	-8.06466e-10 	8.06466e-10
0.044497 	1.45116e+06 	0.00163248 	421.551 	-6.93267e-10 	6.93267e-10
0.0454967 	1.45118e+06 	0.0017299 	430.525 	-7.28887e-10 	7.28887e-10
0.0464965 	1.45121e+06 	0.00183488 	439.489 	-5.33437e-10 	5.33437e-10
0.0474963 	1.45123e+06 	0.00194806 	448.52 	-5.84279e-10 	5.84279e-10
0.0484961 	1.45126e+06 	0.00207014 	457.559 	-4.16134e-10 	4.16134e-10
0.0494958 	1.45128e+06 	0.00220188 	466.613 	-2.99237e-10 	2.99237e-10
0.0504956 	1.45131e+06 	0.00234411 	475.675 	-3.29439e-10 	3.29439e-10
0.0514954 	1.45133e+06 	0.00249775 	484.739 	-2.79962e-10 	2.79962e-10
0.0524952 	1.45136e+06 	0.00266379 	493.801 	-2.34259e-10 	2.34259e-10
0.053495 	1.45138e+06 	0.00284331 	502.854 	-1.68254e-10 	1.68254e-10
0.0544948 	1.4514e+06 	0.00303749 	511.891 	-1.40771e-10 	1.40771e-10
0.0554946 	1.45143e+06 	0.00324763 	520.905 	-9.18159e-11 	9.18159e-11
0.0564944 	1.45145e+06 	0.00347512 	529.889 	-9.67979e-11 	9.67979e-11
0.0574942 	1.45147e+06 	0.0037215 	538.836 	-6.52353e-11 	6.52353e-11
0.058494 	1.4515e+06 	0.00398844 	547.734 	-8.99861e-11 	8.99861e-11
0.0594938 	1.45153e+06 	0.00427777 	556.59 	1.79565e-12 	-1.79565e-12
0.0604936 	1.45157e+06 	0.00459148 	565.404 	-1.68553e-12 	1.68553e-12
0.0614934 	1.45162e+06 	0.00493172 	574.186 	1.66204e-12 	-1.66204e-12
0.0624932 	1.45167e+06 	0.00530086 	582.958 	1.70861e-12 	-1.70861e-12
0.063493 	1.45174e+06 	0.00570148 	591.713 	1.61469e-12 	-1.61469e-12
0.0644928 	1.45182e+06 	0.00613634 	600.509 	0 	6.91041e-32
0.0654926 	1.45193e+06 	0.00660851 	609.304 	7.66102e-12 	-7.66102e-12
0.0664924 	1.45204e+06 	0.00712125 	618.185 	-7.68676e-12 	7.68676e-12
0.0674922 	1.45218e+06 	0.00767818 	627.068 	2.45339e-11 	-2.45339e-11
0.068492 	1.45232e+06 	0.00828314 	636.067 	1.49523e-11 	-1.49523e-11
0.0694918 	1.4525e+06 	0.0089404 	645.067 	7.36074e-12 	-7.36074e-12
0.0704916 	1.45269e+06 	0.00965445 	654.167 	7.25384e-12 	-7.25384e-12
0.0714915 	1.45289e+06 	0.0104303 	663.302 	2.38332e-12 	-2.38332e-12
0.0724913 	1.45311e+06 	0.0112732 	672.493 	8.07558e-13 	-8.07558e-13
0.0734911 	1.45335e+06 	0.0121889 	681.748 	1.15937e-12 	-1.15937e-12
0.0744909 	1.45359e+06 	0.0131837 	691.015 	-7.58388e-12 	7.58388e-12
0.0754907 	1.45384e+06 	0.0142642 	700.342 	1.34771e-11 	-1.34771e-11
0.0764906 	1.4541e+06 	0.0154377 	709.669 	7.84417e-12 	-7.84417e-12
0.0774904 	1.45437e+06 	0.0167119 	719.028 	5.9485e-12 	-5.9485e-12
0.0784902 	1.45464e+06 	0.0180952 	728.351 	5.54753e-12 	-5.54753e-12
0.07949 	1.45493e+06 	0.0195969 	737.62 	5.25382e-13 	-5.25768e-13
0.0804898 	1.45526e+06 	0.0212267 	746.788 	4.47272e-12 	-4.47308e-12
0.0814897 	1.45564e+06 	0.0229954 	755.866 	-6.738e-13 	6.73818e-13
0.0824895 	1.45609e+06 	0.0249144 	764.891 	9.42384e-12 	-9.4671e-12
0.0834893 	1.4566e+06 	0.0269959 	773.95 	4.23545e-12 	-4.13685e-12
0.0844891 	1.45719e+06 	0.0292534 	783.038 	4.45069e-12 	-5.9396e-12
0.085489 	1.45785e+06 	0.0317005 	792.28 	3.33453e-15 	2.38292e-12
0.0864888 	1.45859e+06 	0.0343527 	801.56 	4.67248e-13 	-2.99889e-12
0.0874886 	1.45938e+06 	0.0372252 	810.982 	-2.91262e-12 	2.91243e-12
0.0884884 	1.46021e+06 	0.040335 	820.46 	-3.47504e-12 	3.36312e-12
0.0894883 	1.46106e+06 	0.0436994 	830.034 	-2.13627e-13 	3.48686e-13
0.0904881 	1.46194e+06 	0.0473376 	839.631 	-1.51768e-12 	1.02088e-12
0.0914879 	1.46291e+06 	0.0512711 	849.088 	-2.81598e-12 	2.81564e-12
0.0924877 	1.46402e+06 	0.0555224 	858.372 	-1.78694e-13 	5.8372e-14
0.0934876 	1.46529e+06 	0.0601155 	867.576 	-1.47562e-12 	1.97512e-12
0.0944874 	1.46673e+06 	0.0650753 	876.785 	-1.25756e-12 	1.25511e-12
0.0954872 	1.46831e+06 	0.070427 	886.126 	-4.3635e-13 	4.22131e-13
0.0964871 	1.47004e+06 	0.0761973 	895.615 	-8.75585e-13 	8.70027e-13
0.0974869 	1.47183e+06 	0.0824119 	905.344 	-4.58123e-13 	4.58014e-13
0.0984867 	1.47371e+06 	0.0891 	915.209 	-1.03269e-12 	1.0324e-12
0.0994866 	1.47579e+06 	0.0962975 	924.956 	1.875e-13 	-1.87569e-13
0.100486 	1.47814e+06 	0.104041 	934.439 	-1.23103e-13 	1.2303e-13
0.101486 	1.4808e+06 	0.112368 	943.831 	1.85561e-13 	-1.42144e-13
0.102486 	1.48371e+06 	0.121313 	953.338 	-2.21271e-13 	1.99677e-13
0.103486 	1.48681e+06 	0.130914 	963.093 	3.21498e-13 	-3.215e-13
0.104486 	1.48999e+06 	0.141205 	973.253 	-5.51522e-13 	3.33801e-13
0.105486 	1.49354e+06 	0.152246 	983.383 	9.87957e-13 	-9.31119e-13
0.106485 	1.49756e+06 	0.164092 	993.138 	-1.70824e-13 	1.68849e-13
0.107485 	1.50206e+06 	0.176798 	1002.8 	4.64479e-13 	-4.12771e-13
0.108485 	1.50685e+06 	0.190405 	1012.68 	-5.60391e-15 	2.05851e-13
0.109485 	1.51175e+06 	0.204956 	1023.1 	1.11325e-13 	-3.12968e-13
0.110485 	1.51715e+06 	0.220542 	1033.66 	-3.14439e-13 	1.91641e-13
0.111485 	1.52336e+06 	0.237258 	1043.66 	3.40178e-13 	-3.87037e-13
0.112484 	1.53024e+06 	0.255172 	1053.67 	1.92318e-13 	-3.08656e-13
0.113484 	1.53731e+06 	0.27431 	1064.21 	9.88918e-14 	-1.2484e-13
0.114484 	1.54465e+06 	0.294758 	1075.33 	2.87755e-13 	-3.03201e-13
0.115484 	1.55328e+06 	0.316716 	1085.79 	4.91981e-13 	-5.16516e-13
0.116484 	1.5629e+06 	0.340264 	1096.14 	8.22052e-13 	-8.34334e-13
0.117484 	1.57262e+06 	0.365385 	1107.27 	5.63642e-13 	-5.70795e-13
0.118483 	1.58304e+06 	0.392279 	1118.9 	6.4572e-13 	-6.53136e-13
0.119483 	1.5952e+06 	0.421204 	1129.52 	6.51778e-13 	-6.45966e-13
0.120483 	1.60827e+06 	0.452201 	1140.71 	4.00725e-13 	-4.11521e-13
0.121483 	1.62143e+06 	0.485307 	1153.07 	5.612e-13 	-5.7357e-13
0.122483 	1.63678e+06 	0.520983 	1164.3 	5.45031e-13 	-5.51126e-13
0.123483 	1.65367e+06 	0.559325 	1175.96 	4.72941e-13 	-4.78799e-13
0.124482 	1.67069e+06 	0.600501 	1189.39 	3.61091e-13 	-3.59194e-13
0.125482 	1.69266e+06 	0.645252 	1200.57 	3.36962e-13 	-3.35886e-13
0.126482 	1.71157e+06 	0.693019 	1215.59 	3.11823e-13 	-3.10892e-13
0.127482 	1.73942e+06 	0.745481 	1226.24 	2.38296e-13 	-2.37401e-13
0.128482 	1.76034e+06 	0.800984 	1242.97 	1.89948e-13 	-1.90075e-13
0.129482 	1.79415e+06 	0.862609 	1253.06 	1.40666e-13 	-1.40745e-13
0.130481 	1.81836e+06 	0.927294 	1271.26 	1.24705e-13 	-1.24832e-13
0.131481 	1.85893e+06 	1.00024 	1281.21 	1.6047e-13 	-1.60585e-13
0.132481 	1.88743e+06 	1.07644 	1300.97 	1.589e-13 	-1.59004e-13
0.133481 	1.93601e+06 	1.16356 	1310.86 	7.36392e-14 	-7.36928e-14
0.134481 	1.96978e+06 	1.25401 	1331.77 	1.0313e-13 	-1.03259e-13
0.135481 	2.02652e+06 	1.35826 	1342.09 	-6.13884e-14 	6.1258e-14
0.13648 	2.06737e+06 	1.46659 	1363.06 	2.22633e-14 	-2.24269e-14
0.13748 	2.13136e+06 	1.59109 	1374.77 	1.36408e-14 	-1.37299e-14
0.13848 	2.18283e+06 	1.72239 	1394.66 	6.85836e-15 	-6.84895e-15
0.13948 	2.25376e+06 	1.87114 	1408.65 	7.60576e-15 	-7.83687e-15
0.14048 	2.32074e+06 	2.03141 	1427.39 	-2.6716e-14 	2.68207e-14
0.14148 	2.40298e+06 	2.21153 	1444.54 	1.24465e-14 	-1.21547e-14
0.14248 	2.49112e+06 	2.41073 	1463.46 	-3.57229e-14 	3.65563e-14
0.143479 	2.59065e+06 	2.63322 	1482.7 	-3.84184e-14 	3.85129e-14
0.144479 	2.70091e+06 	2.88122 	1502.66 	-2.96804e-14 	2.97708e-14
0.145479 	2.82479e+06 	3.15884 	1523.45 	-2.23975e-14 	2.24835e-14
0.146479 	2.96809e+06 	3.47289 	1546.06 	-1.31379e-14 	1.31379e-14
0.147479 	3.14732e+06 	3.84135 	1573.97 	-2.49339e-15 	2.49339e-15
0.148479 	3.39094e+06 	4.30506 	1611.85 	-2.22841e-16 	2.22841e-16
0.149478 	3.54646e+06 	4.70249 	1624.93 	1.26918e-14 	-1.26918e-14
0.150478 	3.46416e+06 	4.86302 	1603.52 	8.93024e-15 	-8.93024e-15
0.151478 	2.99415e+06 	4.65329 	1476.62 	-4.14457e-15 	4.14457e-15
0.152478 	1.53538e+06 	3.15563 	1021.72 	-3.09508e-15 	3.09508e-15
0.153478 	232015 	1.44187 	201.551 	6.9808e-15 	-6.97748e-15
0.154478 	103487 	1.17771 	8.5514 	-5.63106e-15 	5.6377e-15
0.155477 	100074 	1.16153 	0.19346 	-6.89179e-17 	7.85803e-17
0.156477 	99999.2 	1.16101 	0.00420496 	-1.48441e-15 	1.49939e-15
0.157477 	99997.6 	1.161 	9.1176e-05 	-1.66979e-14 	1.67165e-14
0.158477 	99997.6 	1.161 	1.97143e-06 	-1.28382e-14 	1.28645e-14
0.159477 	99997.6 	1.161 	4.2427e-08 	-2.68711e-14 	2.6904e-14
0.160477 	99997.6 	1.161 	8.92512e-10 	-2.64467e-14 	2.64694e-14
0.161476 	99997.6 	1.161 	9.14209e-12 	-1.33126e-14 	1.33264e-14
0.162476 	99997.6 	1.161 	-7.76818e-12 	-1.54319e-14 	1.54411e-14
0.163476 	99997.6 	1.161 	-2.98845e-12 	-3.3274e-14 	3.32781e-14
0.164476 	99997.6 	1.161 	1.16028e-11 	-1.25664e-14 	1.2567e-14
0.165476 	99997.6 	1.161 	1.58898e-11 	-6.73549e-16 	6.73549e-16
0.166476 	99997.6 	1.161 	1.21318e-11 	0 	0
0.167476 	99997.6 	1.161 	1.13347e-11 	1.96566e-14 	-1.96566e-14
0.168475 	99997.6 	1.161 	-9.49901e-12 	0 	0
0.169475 	99997.6 	1.161 	-4.37285e-14 	0 	0
0.170475 	99997.6 	1.161 	7.60199e-12 	0 	0
0.171475 	99997.6 	1.161 	-2.20397e-13 	-6.03036e-15 	6.01314e-15
0.172475 	99997.6 	1.161 	1.56725e-13 	-1.38806e-15 	1.33601e-15
0.173475 	99997.6 	1.161 	9.44607e-14 	-6.15291e-15 	6.13616e-15
0.174474 	99997.6 	1.161 	-2.5981e-12 	-1.39662e-14 	1.39539e-14
0.175474 	99997.6 	1.161 	-4.44066e-13 	-1.43031e-14 	1.42955e-14
0.176474 	99997.6 	1.161 	-6.13051e-12 	-7.33921e-15 	7.33593e-15
0.177474 	99997.6 	1.161 	-1.73634e-12 	-5.22987e-16 	5.21519e-16
0.178474 	99997.6 	1.161 	1.4568e-11 	3.47743e-16 	-3.48737e-16
0.179474 	99997.6 	1.161 	-1.89015e-12 	8.26336e-15 	-8.26436e-15
0.180473 	99997.6 	1.161 	-9.54766e-12 	9.11456e-15 	-9.11505e-15
0.181473 	99997.6 	1.161 	-4.43718e-12 	2.10376e-15 	-2.10376e-15
0.182473 	99997.6 	1.161 	-2.9642e-13 	0 	0
0.183473 	99997.6 	1.161 	-8.31681e-12 	0 	0
0.184473 	99997.6 	1.161 	1.37176e-11 	0 	0
0.185473 	99997.6 	1.161 	2.17067e-11 	0 	0
0.186473 	99997.6 	1.161 	6.40745e-12 	0 	0
0.187472 	99997.6 	1.161 	-1.37899e-11 	0 	0
0.188472 	99997.6 	1.161 	-1.15647e-11 	0 	0
0.189472 	99997.6 	1.161 	-2.81362e-12 	1.40742e-15 	-1.40742e-15
0.190472 	99997.6 	1.161 	4.07875e-13 	8.28252e-15 	-8.28252e-15
0.191472 	99997.6 	1.161 	-1.00591e-12 	1.01818e-15 	-1.01818e-15
0.192472 	99997.6 	1.161 	-4.28554e-12 	0 	0
0.193471 	99997.6 	1.161 	7.74813e-14 	-2.12345e-15 	2.12345e-15
0.194471 	99997.6 	1.161 	2.32464e-13 	3.87501e-15 	-3.87501e-15
0.195471 	99997.6 	1.161 	-3.02188e-13 	0 	0
0.196471 	99997.6 	1.161 	2.92872e-12 	-6.50775e-15 	6.50775e-15
0.197471 	99997.6 	1.161 	-7.35574e-12 	0 	0
0.198471 	99997.6 	1.161 	-1.04877e-11 	2.52732e-15 	-2.52019e-15
0.199471 	99997.6 	1.161 	-8.06455e-12 	8.50113e-15 	-8.48941e-15
0.20047 	99997.6 	1.161 	-8.28367e-12 	8.76437e-15 	-8.74807e-15
0.20147 	99997.6 	1.161 	-2.16919e-12 	3.42131e-15 	-3.40905e-15
0.20247 	99997.6 	1.161 	4.26601e-12 	0 	0
0.20347 	99997.6 	1.161 	4.71012e-12 	-3.97791e-15 	3.97791e-15
0.20447 	99997.6 	1.161 	2.89197e-11 	-9.71891e-15 	9.71891e-15
0.20547 	99997.6 	1.161 	2.72267e-11 	-1.04677e-14 	1.04677e-14
0.206469 	99997.6 	1.161 	2.21249e-12 	-5.16235e-15 	5.16235e-15
0.207469 	99997.6 	1.161 	-1.09032e-11 	-6.25075e-15 	6.25075e-15
0.208469 	99997.6 	1.161 	-1.75131e-11 	5.10342e-16 	-5.10342e-16
0.209469 	99997.6 	1.161 	-1.00479e-11 	0 	0
0.210469 	99997.6 	1.161 	1.64773e-11 	0 	0
0.211469 	99997.6 	1.161 	2.60476e-11 	-4.42125e-15 	4.42125e-15
0.212468 	99997.6 	1.161 	-3.38981e-12 	-1.16431e-14 	1.16431e-14
0.213468 	99997.6 	1.161 	-5.02637e-11 	-1.38158e-14 	1.38158e-14
0.214468 	99997.6 	1.161 	-3.31386e-11 	-2.51163e-14 	2.51163e-14
0.215468 	99997.6 	1.161 	2.50419e-12 	-2.91577e-14 	2.91577e-14
0.216468 	99997.6 	1.161 	-1.71133e-11 	-2.33236e-14 	2.33236e-14
0.217468 	99997.6 	1.161 	2.04039e-11 	-3.34824e-15 	3.34824e-15
0.218468 	99997.6 	1.161 	3.70315e-11 	0 	0
0.219467 	99997.6 	1.161 	4.19687e-11 	0 	0
0.220467 	99997.6 	1.161 	5.32097e-12 	0 	0
0.221467 	99997.6 	1.161 	-1.80563e-11 	0 	0
0.222467 	99997.6 	1.161 	1.58842e-11 	2.72819e-16 	-2.72819e-16
0.223467 	99997.6 	1.161 	3.63576e-12 	5.27043e-15 	-5.27043e-15
0.224467 	99997.6 	1.161 	-6.78402e-12 	1.37371e-14 	-1.37371e-14
0.225466 	99997.6 	1.161 	-9.98647e-12 	1.6353e-15 	-1.6353e-15
0.226466 	99997.6 	1.161 	1.95905e-12 	-5.76066e-15 	5.76066e-15
0.227466 	99997.6 	1.161 	4.36462e-12 	-2.10452e-14 	2.10452e-14
0.228466 	99997.6 	1.161 	9.34886e-12 	-1.63186e-14 	1.63186e-14
0.229466 	99997.6 	1.161 	-9.29967e-12 	-1.93251e-14 	1.93251e-14
0.230466 	99997.6 	1.161 	-2.17935e-11 	-2.3667e-14 	2.3667e-14
0.231466 	99997.6 	1.161 	-1.64295e-11 	-1.35851e-14 	1.35851e-14
0.232465 	99997.6 	1.161 	1.14847e-11 	-2.75279e-16 	2.75279e-16
0.233465 	99997.6 	1.161 	9.28088e-12 	0 	0
0.234465 	99997.6 	1.161 	-2.6328e-12 	0 	0
0.235465 	99997.6 	1.161 	-8.1255e-12 	0 	0
0.236465 	99997.6 	1.161 	-1.40764e-11 	0 	0
0.237465 	99997.6 	1.161 	5.55052e-12 	0 	0
0.238464 	99997.6 	1.161 	-7.39557e-14 	0 	0
0.239464 	99997.6 	1.161 	-2.51094e-12 	-6.56656e-15 	6.56656e-15
0.240464 	99997.6 	1.161 	2.0017e-11 	-1.37897e-14 	1.37897e-14
0.241464 	99997.6 	1.161 	1.73599e-11 	-4.62162e-15 	4.62162e-15
0.242464 	99997.6 	1.161 	-5.88094e-14 	2.38234e-15 	-2.38234e-15
0.243464 	99997.6 	1.161 	-8.68935e-12 	1.96646e-14 	-1.96646e-14
0.244464 	99997.6 	1.161 	9.65343e-13 	2.54158e-14 	-2.54158e-14
0.245463 	99997.6 	1.161 	1.17641e-11 	2.03015e-14 	-2.03015e-14
0.246463 	99997.6 	1.161 	9.60572e-12 	-4.28235e-16 	4.28235e-16
0.247463 	99997.6 	1.161 	-9.61622e-12 	6.358e-17 	-6.358e-17
0.248463 	99997.6 	1.161 	-1.37014e-11 	2.61025e-15 	-2.61025e-15
0.249463 	99997.6 	1.161 	2.21932e-13 	-5.80715e-15 	5.80715e-15
0.250463 	99997.6 	1.161 	-3.0483e-13 	-8.02135e-16 	8.02135e-16
0.251462 	99997.6 	1.161 	1.68898e-12 	0 	0
0.252462 	99997.6 	1.161 	1.73506e-11 	0 	0
0.253462 	99997.6 	1.161 	1.10469e-11 	0 	0
0.254462 	99997.6 	1.161 	-2.03233e-11 	0 	0
0.255462 	99997.6 	1.161 	-3.16656e-11 	0 	0
0.256462 	99997.6 	1.161 	-2.25349e-11 	-2.71874e-15 	2.71874e-15
0.257462 	99997.6 	1.161 	7.61545e-12 	-1.34074e-14 	1.34074e-14
0.258461 	99997.6 	1.161 	2.81976e-12 	-2.51002e-15 	2.51002e-15
0.259461 	99997.6 	1.161 	-7.59044e-12 	0 	0
0.260461 	99997.6 	1.161 	-2.32396e-12 	0 	0
0.261461 	99997.6 	1.161 	4.49971e-12 	0 	0
0.262461 	99997.6 	1.161 	-2.07912e-12 	1.72106e-15 	-1.72106e-15
0.263461 	99997.6 	1.161 	7.06371e-12 	9.67726e-15 	-9.67726e-15
0.26446 	99997.6 	1.161 	9.86227e-12 	1.94909e-14 	-1.94909e-14
0.26546 	99997.6 	1.161 	-7.50684e-12 	1.64559e-14 	-1.64559e-14
0.26646 	99997.6 	1.161 	-2.44623e-12 	1.93006e-14 	-1.93006e-14
0.26746 	99997.6 	1.161 	5.86832e-12 	1.10626e-14 	-1.10626e-14
0.26846 	99997.6 	1.161 	6.10975e-12 	1.82817e-15 	-1.82817e-15
0.26946 	99997.6 	1.161 	3.88199e-12 	0 	0
0.27046 	99997.6 	1.161 	-2.49081e-12 	0 	0
0.271459 	99997.6 	1.161 	3.75885e-12 	0 	0
0.272459 	99997.6 	1.161 	1.31488e-11 	0 	0
0.273459 	99997.6 	1.161 	-1.49441e-11 	-1.26763e-15 	1.26763e-15
0.274459 	99997.6 	1.161 	-1.94626e-11 	-4.85191e-15 	4.85191e-15
0.275459 	99997.6 	1.161 	-8.71426e-12 	-1.0278e-14 	1.0278e-14
0.276459 	99997.6 	1.161 	4.53669e-12 	-2.2833e-15 	2.2833e-15
0.277458 	99997.6 	1.161 	8.78798e-12 	0 	0
0.278458 	99997.6 	1.161 	5.4063e-12 	0 	0
0.279458 	99997.6 	1.161 	4.71144e-12 	0 	0
0.280458 	99997.6 	1.161 	4.51822e-12 	2.08181e-15 	-2.08181e-15
0.281458 	99997.6 	1.161 	3.22555e-12 	5.10561e-15 	-5.10561e-15
0.282458 	99997.6 	1.161 	5.4141e-12 	1.27363e-14 	-1.27363e-14
0.283457 	99997.6 	1.161 	1.99383e-11 	9.41324e-15 	-9.41324e-15
0.284457 	99997.6 	1.161 	-2.21217e-11 	-1.22704e-14 	1.22704e-14
0.285457 	99997.6 	1.161 	-3.0751e-11 	-4.88407e-15 	4.88407e-15
0.286457 	99997.6 	1.161 	-1.38819e-12 	-1.0567e-15 	1.0567e-15
0.287457 	99997.6 	1.161 	2.18789e-11 	0 	0
0.288457 	99997.6 	1.161 	1.07479e-11 	-4.04169e-15 	4.04169e-15
0.289457 	99997.6 	1.161 	-1.48438e-12 	0 	0
0.290456 	99997.6 	1.161 	-3.04219e-12 	0 	0
0.291456 	99997.6 	1.161 	-8.73228e-12 	2.78807e-15 	-2.78807e-15
0.292456 	99997.6 	1.161 	-9.52983e-12 	-3.16586e-15 	3.16586e-15
0.293456 	99997.6 	1.161 	-9.28045e-12 	0 	0
0.294456 	99997.6 	1.161 	-1.07026e-11 	1.22327e-15 	-1.22327e-15
0.295456 	99997.6 	1.161 	7.56861e-12 	3.55325e-15 	-3.55325e-15
0.296455 	99997.6 	1.161 	1.17719e-11 	-2.17987e-15 	2.17987e-15
0.297455 	99997.6 	1.161 	6.59742e-12 	-2.23913e-16 	2.23913e-16
0.298455 	99997.6 	1.161 	6.03813e-12 	0 	0
0.299455 	99997.6 	1.161 	-5.19505e-13 	-1.03035e-16 	1.03035e-16
0.300455 	99997.6 	1.161 	-8.70751e-12 	-2.21251e-15 	2.21251e-15
0.301455 	99997.6 	1.161 	-4.37311e-12 	1.15617e-15 	-1.15617e-15
0.302455 	99997.6 	1.161 	2.16829e-12 	-2.90485e-15 	2.90485e-15
0.303454 	99997.6 	1.161 	-8.15168e-12 	0 	0
0.304454 	99997.6 	1.161 	6.74036e-12 	2.43795e-15 	-2.43795e-15
0.305454 	99997.6 	1.161 	1.38128e-11 	0 	0
0.306454 	99997.6 	1.161 	7.45588e-12 	0 	0
0.307454 	99997.6 	1.161 	3.9759e-12 	-3.98361e-15 	3.98361e-15
0.308454 	99997.6 	1.161 	-7.15913e-12 	-1.11836e-14 	1.11836e-14
0.309453 	99997.6 	1.161 	-8.39401e-12 	-1.08415e-14 	1.08415e-14
0.310453 	99997.6 	1.161 	-6.24559e-12 	-2.31946e-15 	2.31946e-15
0.311453 	99997.6 	1.161 	6.03908e-12 	0 	0
0.312453 	99997.6 	1.161 	2.39764e-11 	0 	0
0.313453 	99997.6 	1.161 	3.99717e-12 	0 	0
0.314453 	99997.6 	1.161 	-5.70856e-12 	3.19948e-15 	-3.19948e-15
0.315453 	99997.6 	1.161 	1.21971e-11 	0 	0
0.316452 	99997.6 	1.161 	2.78928e-12 	0 	0
0.317452 	99997.6 	1.161 	-7.53717e-12 	-2.07788e-15 	2.07788e-15
0.318452 	99997.6 	1.161 	-1.85685e-12 	-8.61241e-15 	8.61241e-15
0.319452 	99997.6 	1.161 	9.11247e-12 	-1.90355e-14 	1.90355e-14
0.320452 	99997.6 	1.161 	5.74489e-12 	-2.49787e-14 	2.49787e-14
0.321452 	99997.6 	1.161 	-1.10416e-11 	-2.64986e-14 	2.64986e-14
0.322451 	99997.6 	1.161 	-9.75346e-13 	-2.37214e-14 	2.37214e-14
0.323451 	99997.6 	1.161 	2.50053e-12 	-2.52948e-14 	2.52948e-14
0.324451 	99997.6 	1.161 	2.35537e-12 	-1.98041e-14 	1.98041e-14
0.325451 	99997.6 	1.161 	1.50819e-12 	-8.67494e-15 	8.67494e-15
0.326451 	99997.6 	1.161 	-2.19867e-12 	-1.54445e-15 	1.54445e-15
0.327451 	99997.6 	1.161 	-9.54604e-12 	0 	0
0.328451 	99997.6 	1.161 	-1.69556e-12 	2.09481e-15 	-2.09481e-15
0.32945 	99997.6 	1.161 	1.52472e-11 	0 	0
0.33045 	99997.6 	1.161 	6.82039e-12 	0 	0
0.33145 	99997.6 	1.161 	-9.00958e-12 	0 	0
0.33245 	99997.6 	1.161 	-9.74188e-12 	-1.7122e-15 	1.7122e-15
0.33345 	99997.6 	1.161 	-5.75911e-12 	-6.64047e-15 	6.64047e-15
0.33445 	99997.6 	1.161 	-1.71606e-11 	-7.48688e-15 	7.48688e-15
0.33545 	99997.6 	1.161 	-1.47593e-11 	-1.10698e-15 	1.10698e-15
0.336449 	99997.6 	1.161 	8.89419e-12 	0 	0
0.337449 	99997.6 	1.161 	2.20348e-11 	0 	0
0.338449 	99997.6 	1.161 	2.14147e-11 	0 	0
0.339449 	99997.6 	1.161 	-1.15412e-11 	0 	0
0.340449 	99997.6 	1.161 	-3.12119e-11 	-9.92158e-18 	9.92158e-18
0.341449 	99997.6 	1.161 	-2.65211e-11 	-7.40104e-15 	7.40104e-15
0.342448 	99997.6 	1.161 	1.90581e-11 	0 	0
0.343448 	99997.6 	1.161 	7.891e-12 	0 	0
0.344448 	99997.6 	1.161 	2.76608e-12 	4.95005e-15 	-4.95005e-15
0.345448 	99997.6 	1.161 	9.81399e-12 	2.27762e-15 	-2.27762e-15
0.346448 	99997.6 	1.161 	1.71223e-11 	4.33868e-15 	-4.33868e-15
0.347448 	99997.6 	1.161 	1.30667e-11 	0 	0
0.348448 	99997.6 	1.161 	-5.07018e-12 	-5.72077e-15 	5.72077e-15
0.349447 	99997.6 	1.161 	-2.07461e-12 	-4.04441e-15 	4.04441e-15
0.350447 	99997.6 	1.161 	-7.15989e-12 	-9.76191e-15 	9.76191e-15
0.351447 	99997.6 	1.161 	-1.62521e-11 	-8.82894e-15 	8.82894e-15
0.352447 	99997.6 	1.161 	-1.10014e-11 	-1.63842e-15 	1.63842e-15
0.353447 	99997.6 	1.161 	3.59301e-12 	0 	0
0.354447 	99997.6 	1.161 	1.2064e-11 	0 	0
0.355446 	99997.6 	1.161 	1.06562e-11 	3.13031e-15 	-3.13031e-15
0.356446 	99997.6 	1.161 	-9.52357e-12 	0 	0
0.357446 	99997.6 	1.161 	-1.49359e-11 	-8.63062e-15 	8.63062e-15
0.358446 	99997.6 	1.161 	-2.31276e-11 	-9.59587e-15 	9.59587e-15
0.359446 	99997.6 	1.161 	-1.91889e-11 	-4.08741e-15 	4.08741e-15
0.360446 	99997.6 	1.161 	1.17287e-11 	-5.90277e-15 	5.90277e-15
0.361446 	99997.6 	1.161 	5.81084e-12 	-4.63806e-16 	4.63806e-16
0.362445 	99997.6 	1.161 	1.50855e-11 	0 	0
0.363445 	99997.6 	1.161 	1.6335e-11 	-2.28346e-15 	2.28346e-15
0.364445 	99997.6 	1.161 	2.80217e-12 	8.87587e-18 	-8.87587e-18
0.365445 	99997.6 	1.161 	1.86686e-12 	-2.25053e-15 	2.25053e-15
0.366445 	99997.6 	1.161 	5.67274e-12 	0 	0
0.367445 	99997.6 	1.161 	2.23782e-12 	2.35642e-15 	-2.35642e-15
0.368444 	99997.6 	1.161 	-8.28776e-13 	0 	0
0.369444 	99997.6 	1.161 	-2.63902e-12 	0 	0
0.370444 	99997.6 	1.161 	-5.5161e-12 	-1.62842e-15 	1.62842e-15
0.371444 	99997.6 	1.161 	-3.21485e-12 	-8.10781e-15 	8.10781e-15
0.372444 	99997.6 	1.161 	8.57621e-13 	-1.08606e-14 	1.08606e-14
0.373444 	99997.6 	1.161 	1.10334e-11 	-1.52042e-14 	1.52042e-14
0.374444 	99997.6 	1.161 	7.74574e-12 	-1.70496e-14 	1.70496e-14
0.375443 	99997.6 	1.161 	-3.06e-12 	-1.28049e-14 	1.28049e-14
0.376443 	99997.6 	1.161 	5.96496e-12 	-5.14867e-15 	5.14867e-15
0.377443 	99997.6 	1.161 	7.22176e-12 	0 	0
0.378443 	99997.6 	1.161 	-3.00505e-12 	0 	0
0.379443 	99997.6 	1.161 	-1.43863e-11 	2.88083e-15 	-2.88083e-15
0.380443 	99997.6 	1.161 	-1.66632e-11 	1.33235e-15 	-1.33235e-15
0.381442 	99997.6 	1.161 	-1.50588e-11 	4.11105e-15 	-4.11105e-15
0.382442 	99997.6 	1.161 	1.12147e-11 	1.50944e-16 	-1.50944e-16
0.383442 	99997.6 	1.161 	1.93101e-11 	0 	0
0.384442 	99997.6 	1.161 	-2.43405e-11 	-3.319e-15 	3.319e-15
0.385442 	99997.6 	1.161 	-2.40774e-11 	0 	0
0.386442 	99997.6 	1.161 	-1.34063e-11 	0 	0
0.387442 	99997.6 	1.161 	-2.07775e-12 	9.8909e-16 	-9.8909e-16
0.388441 	99997.6 	1.161 	1.42825e-11 	5.92374e-15 	-5.92374e-15
0.389441 	99997.6 	1.161 	1.88641e-11 	6.03221e-15 	-6.03221e-15
0.390441 	99997.6 	1.161 	1.86588e-11 	3.11456e-15 	-3.11456e-15
0.391441 	99997.6 	1.161 	2.06311e-11 	1.55137e-16 	-1.55137e-16
0.392441 	99997.6 	1.161 	1.19056e-11 	0 	0
0.393441 	99997.6 	1.161 	-5.53235e-13 	2.91778e-15 	-2.91778e-15
0.39444 	99997.6 	1.161 	-3.88835e-14 	0 	0
0.39544 	99997.6 	1.161 	-1.22632e-11 	0 	0
0.39644 	99997.6 	1.161 	-2.95918e-11 	0 	0
0.39744 	99997.6 	1.161 	-1.36925e-11 	0 	0
0.39844 	99997.6 	1.161 	1.35167e-11 	0 	0
0.39944 	99997.6 	1.161 	1.0775e-11 	0 	0
0.40044 	99997.6 	1.161 	2.81761e-13 	0 	0
0.401439 	99997.6 	1.161 	-7.06359e-12 	0 	0
0.402439 	99997.6 	1.161 	2.26893e-11 	4.53584e-16 	-4.53584e-16
0.403439 	99997.6 	1.161 	3.13922e-11 	6.73073e-15 	-6.73073e-15
0.404439 	99997.6 	1.161 	1.34995e-12 	1.26641e-14 	-1.26641e-14
0.405439 	99997.6 	1.161 	-3.8083e-12 	1.65266e-14 	-1.65266e-14
0.406439 	99997.6 	1.161 	-5.30449e-13 	1.76271e-14 	-1.76271e-14
0.407438 	99997.6 	1.161 	-1.22795e-11 	1.05357e-14 	-1.05357e-14
0.408438 	99997.6 	1.161 	-1.14929e-11 	1.84596e-15 	-1.84596e-15
0.409438 	99997.6 	1.161 	-8.94669e-12 	-8.72628e-16 	8.72628e-16
0.410438 	99997.6 	1.161 	-9.2268e-12 	0 	0
0.411438 	99997.6 	1.161 	-9.44788e-12 	0 	0
0.412438 	99997.6 	1.161 	5.77058e-12 	0 	0
0.413438 	99997.6 	1.161 	8.52484e-12 	0 	0
0.414437 	99997.6 	1.161 	-1.76854e-11 	0 	0
0.415437 	99997.6 	1.161 	-9.82091e-12 	0 	0
0.416437 	99997.6 	1.161 	-4.03182e-12 	0 	0
0.417437 	99997.6 	1.161 	-6.90567e-12 	0 	0
0.418437 	99997.6 	1.161 	-1.21586e-11 	-9.07734e-16 	9.07734e-16
0.419437 	99997.6 	1.161 	-7.32012e-12 	1.51391e-15 	-1.51391e-15
0.420436 	99997.6 	1.161 	-2.49786e-12 	0 	0
0.421436 	99997.6 	1.161 	5.83599e-12 	-1.30971e-15 	1.30971e-15
0.422436 	99997.6 	1.161 	4.09778e-12 	-3.80722e-15 	3.80722e-15
0.423436 	99997.6 	1.161 	7.98009e-12 	-3.72589e-15 	3.72589e-15
0.424436 	99997.6 	1.161 	3.69868e-11 	-4.79382e-15 	4.79382e-15
0.425436 	99997.6 	1.161 	2.81108e-11 	-3.33412e-15 	3.33412e-15
0.426436 	99997.6 	1.161 	-2.86503e-11 	-7.06966e-15 	7.06966e-15
0.427435 	99997.6 	1.161 	-2.06889e-11 	-4.2804e-15 	4.2804e-15
0.428435 	99997.6 	1.161 	1.64134e-11 	-3.07221e-15 	3.07221e-15
0.429435 	99997.6 	1.161 	-8.5455e-12 	1.23254e-15 	-1.23254e-15
0.430435 	99997.6 	1.161 	-1.08226e-11 	1.3425e-15 	-1.3425e-15
0.431435 	99997.6 	1.161 	-5.59138e-14 	2.38572e-15 	-2.38572e-15
0.432435 	99997.6 	1.161 	1.5107e-11 	1.00157e-15 	-1.00157e-15
0.433434 	99997.6 	1.161 	-5.3119e-13 	2.03528e-15 	-2.03528e-15
0.434434 	99997.6 	1.161 	-1.07513e-11 	6.64279e-16 	-6.64279e-16
0.435434 	99997.6 	1.161 	5.94753e-12 	1.58627e-15 	-1.58627e-15
0.436434 	99997.6 	1.161 	1.97184e-11 	-1.33667e-15 	1.33667e-15
0.437434 	99997.6 	1.161 	3.11468e-11 	-1.90232e-17 	1.90232e-17
0.438434 	99997.6 	1.161 	4.36975e-12 	-6.25959e-16 	6.25959e-16
0.439434 	99997.6 	1.161 	-4.99746e-12 	-5.72941e-15 	5.72941e-15
0.440433 	99997.6 	1.161 	-5.27739e-12 	-1.60243e-14 	1.60243e-14
0.441433 	99997.6 	1.161 	-3.49838e-11 	-1.50087e-14 	1.50087e-14
0.442433 	99997.6 	1.161 	-3.55558e-11 	7.6012e-16 	-7.6012e-16
0.443433 	99997.6 	1.161 	-1.26029e-11 	1.01153e-14 	-1.01153e-14
0.444433 	99997.6 	1.161 	-5.83802e-12 	1.39757e-14 	-1.39757e-14
0.445433 	99997.6 	1.161 	1.11367e-11 	5.81543e-15 	-5.81543e-15
0.446433 	99997.6 	1.161 	2.35171e-11 	2.53561e-15 	-2.53561e-15
0.447432 	99997.6 	1.161 	2.11528e-11 	5.61258e-16 	-5.61258e-16
0.448432 	99997.6 	1.161 	1.38949e-11 	2.25886e-15 	-2.25886e-15
0.449432 	99997.6 	1.161 	7.98239e-12 	8.41562e-15 	-8.41562e-15
0.450432 	99997.6 	1.161 	1.06688e-12 	1.70222e-15 	-1.70222e-15
0.451432 	99997.6 	1.161 	-1.86375e-12 	-9.89738e-16 	9.89738e-16
0.452432 	99997.6 	1.161 	-4.00187e-12 	-8.07216e-15 	8.07216e-15
0.453431 	99997.6 	1.161 	-6.00186e-12 	-3.00899e-15 	3.00899e-15
0.454431 	99997.6 	1.161 	-4.29093e-12 	-5.5667e-16 	5.5667e-16
0.455431 	99997.6 	1.161 	5.6716e-12 	-3.99158e-17 	3.99158e-17
0.456431 	99997.6 	1.161 	7.76943e-12 	-2.54487e-15 	2.54487e-15
0.457431 	99997.6 	1.161 	5.33993e-12 	-8.81063e-15 	8.81063e-15
0.458431 	99997.6 	1.161 	2.44713e-12 	-2.07804e-14 	2.07804e-14
0.459431 	99997.6 	1.161 	-6.30243e-12 	-2.38001e-14 	2.38001e-14
0.46043 	99997.6 	1.161 	-2.72103e-12 	-2.46706e-14 	2.46706e-14
0.46143 	99997.6 	1.161 	1.61585e-13 	-1.93174e-14 	1.93174e-14
0.46243 	99997.6 	1.161 	8.48447e-13 	-9.40634e-15 	9.40634e-15
0.46343 	99997.6 	1.161 	-5.63419e-12 	-2.23671e-15 	2.23671e-15
0.46443 	99997.6 	1.161 	-1.35722e-11 	0 	0
0.46543 	99997.6 	1.161 	-1.25676e-11 	0 	0
0.466429 	99997.6 	1.161 	-1.37542e-12 	0 	0
0.467429 	99997.6 	1.161 	1.54209e-11 	0 	0
0.468429 	99997.6 	1.161 	6.6832e-12 	0 	0
0.469429 	99997.6 	1.161 	-8.81109e-12 	0 	0
0.470429 	99997.6 	1.161 	-3.39942e-12 	0 	0
0.471429 	99997.6 	1.161 	1.49466e-11 	1.54762e-15 	-1.54762e-15
0.472429 	99997.6 	1.161 	1.05751e-11 	6.08042e-15 	-6.08042e-15
0.473428 	99997.6 	1.161 	4.04178e-12 	-7.30871e-16 	7.30871e-16
0.474428 	99997.6 	1.161 	-2.85635e-12 	-1.26662e-14 	1.26662e-14
0.475428 	99997.6 	1.161 	1.03881e-12 	-1.06633e-14 	1.06633e-14
0.476428 	99997.6 	1.161 	1.36685e-11 	-1.16607e-14 	1.16607e-14
0.477428 	99997.6 	1.161 	8.72151e-12 	-4.38781e-15 	4.38781e-15
0.478428 	99997.6 	1.161 	-9.87383e-13 	1.22612e-15 	-1.22612e-15
0.479427 	99997.6 	1.161 	-2.03077e-11 	6.68349e-15 	-6.68349e-15
0.480427 	99997.6 	1.161 	-2.76333e-11 	1.37223e-15 	-1.37223e-15
0.481427 	99997.6 	1.161 	-1.30241e-11 	0 	0
0.482427 	99997.6 	1.161 	1.69399e-11 	0 	0
0.483427 	99997.6 	1.161 	2.38325e-11 	0 	0
0.484427 	99997.6 	1.161 	6.23386e-12 	-6.44651e-16 	6.44651e-16