/*--------------------------------*- C++ -*----------------------------------*\
| =========                 |                                                 |
| \\      /  F ield         | OpenFOAM: The Open Source CFD Toolbox           |
|  \\    /   O peration     | Version:  2312                                  |
|   \\  /    A nd           | Website:  www.openfoam.com                      |
|    \\/     M anipulation  |                                                 |
\*---------------------------------------------------------------------------*/
FoamFile
{
    version     2.0;
    format      ascii;
    arch        "LSB;label=32;scalar=64";
    class       volScalarField;
    location    "0.011";
    object      p;
}
// * * * * * * * * * * * * * * * * * * * * * * * * * * * * * * * * * * * * * //

dimensions      [1 -1 -2 0 0 0 0];

internalField   nonuniform List<scalar> 
100
(
99740
99582.8
99330.7
98990.5
98545.2
97982.8
97293.1
96469.2
95508.2
94411.7
93184.7
91835.7
90375.9
88817.8
87174.8
85460.5
83688.2
81870.2
80018.2
78142.4
76252.2
74355.7
72460.1
70571.4
68695.1
66835.6
64996.5
63182.1
61391.5
59638.5
57891.7
56240.5
54477.9
53047.5
51116.2
50066.9
47912.2
47098.4
45100.8
44060.8
42526.9
41271.4
39976.4
38746.1
37563.7
36428.2
35343
34314
33349.1
32456.2
31641.9
30914.9
30286.6
29766.1
29353.7
29044.9
28836.3
28714.6
28648.3
28600.6
28558.2
28535.3
28546
28576.4
28590.2
28565.8
28520.4
28492.9
28511.3
28567.2
28620.2
28627.5
28580.1
28504.9
28434.8
28393.1
28389.1
28419.2
28470.3
28524.7
28569.2
28599.2
28612.8
28612.7
28603.7
28590.4
28576.7
28565
28556.9
28555.5
28568.1
28603.4
28727.1
28857.1
29368.6
29471.8
30424.6
30169
30674.1
30449.9
)
;

boundaryField
{
    sides
    {
        type            zeroGradient;
    }
    empty
    {
        type            empty;
    }
}


// ************************************************************************* //
