/*--------------------------------*- C++ -*----------------------------------*\
| =========                 |                                                 |
| \\      /  F ield         | OpenFOAM: The Open Source CFD Toolbox           |
|  \\    /   O peration     | Version:  2312                                  |
|   \\  /    A nd           | Website:  www.openfoam.com                      |
|    \\/     M anipulation  |                                                 |
\*---------------------------------------------------------------------------*/
FoamFile
{
    version     2.0;
    format      ascii;
    arch        "LSB;label=32;scalar=64";
    class       volScalarField;
    location    "0.011";
    object      rho;
}
// * * * * * * * * * * * * * * * * * * * * * * * * * * * * * * * * * * * * * //

dimensions      [1 -3 0 0 0 0 0];

internalField   nonuniform List<scalar> 
100
(
1.15676
1.15553
1.15341
1.15049
1.14666
1.14184
1.13592
1.12886
1.12063
1.11123
1.10069
1.08908
1.07649
1.06301
1.04873
1.03377
1.01823
1.00221
0.985786
0.969057
0.952091
0.934955
0.917708
0.900402
0.883082
0.865788
0.848553
0.831409
0.814379
0.797493
0.780759
0.764202
0.747881
0.731598
0.71596
0.699783
0.684864
0.6694
0.65417
0.640321
0.625213
0.611489
0.597783
0.584522
0.571522
0.558921
0.546898
0.535515
0.524738
0.514578
0.505187
0.496803
0.489614
0.483722
0.479172
0.475857
0.473378
0.471325
0.469833
0.469471
0.470242
0.470936
0.470101
0.467817
0.466026
0.466709
0.469644
0.472043
0.470858
0.465795
0.46004
0.457984
0.462174
0.471315
0.480144
0.481743
0.471172
0.448035
0.416122
0.380909
0.347172
0.317868
0.294146
0.275973
0.262686
0.253374
0.247109
0.243063
0.240564
0.239109
0.238373
0.238208
0.238627
0.239879
0.241764
0.244787
0.246829
0.248742
0.249509
0.248295
)
;

boundaryField
{
    sides
    {
        type            zeroGradient;
    }
    empty
    {
        type            empty;
    }
}


// ************************************************************************* //
