/*--------------------------------*- C++ -*----------------------------------*\
| =========                 |                                                 |
| \\      /  F ield         | OpenFOAM: The Open Source CFD Toolbox           |
|  \\    /   O peration     | Version:  2312                                  |
|   \\  /    A nd           | Website:  www.openfoam.com                      |
|    \\/     M anipulation  |                                                 |
\*---------------------------------------------------------------------------*/
FoamFile
{
    version     2.0;
    format      ascii;
    arch        "LSB;label=32;scalar=64";
    class       volScalarField;
    location    "0.011";
    object      T;
}
// * * * * * * * * * * * * * * * * * * * * * * * * * * * * * * * * * * * * * //

dimensions      [0 0 0 1 0 0 0];

internalField   nonuniform List<scalar> 
100
(
299.702
299.548
299.339
299.072
298.719
298.27
297.712
297.037
296.239
295.315
294.268
293.098
291.814
290.421
288.928
287.345
285.681
283.944
282.143
280.286
278.379
276.431
274.446
272.431
270.388
268.324
266.241
264.145
262.026
259.934
257.729
255.802
253.193
252.032
248.16
248.685
243.168
244.559
239.639
239.176
236.428
234.598
232.447
230.404
228.454
226.543
224.626
222.722
220.905
219.235
217.708
216.296
215.011
213.89
212.928
212.157
211.736
211.761
211.942
211.753
211.093
210.612
211.066
212.322
213.241
212.747
211.081
209.807
210.47
213.175
216.242
217.269
214.942
210.219
205.846
204.862
209.428
220.476
237.813
260.293
286.033
312.73
338.112
360.375
378.484
392.213
401.964
408.487
412.614
415.104
416.57
417.374
418.442
418.141
422.236
418.486
428.441
421.576
427.316
426.266
)
;

boundaryField
{
    sides
    {
        type            zeroGradient;
    }
    empty
    {
        type            empty;
    }
}


// ************************************************************************* //
