/*--------------------------------*- C++ -*----------------------------------*\
| =========                 |                                                 |
| \\      /  F ield         | OpenFOAM: The Open Source CFD Toolbox           |
|  \\    /   O peration     | Version:  2312                                  |
|   \\  /    A nd           | Website:  www.openfoam.com                      |
|    \\/     M anipulation  |                                                 |
\*---------------------------------------------------------------------------*/
FoamFile
{
    version     2.0;
    format      ascii;
    arch        "LSB;label=32;scalar=64";
    class       volVectorField;
    location    "0.011";
    object      U;
}
// * * * * * * * * * * * * * * * * * * * * * * * * * * * * * * * * * * * * * //

dimensions      [0 1 -1 0 0 0 0];

internalField   nonuniform List<vector> 
100
(
(0.938871 0 0)
(1.42545 0 0)
(2.12254 0 0)
(3.0305 0 0)
(4.19389 0 0)
(5.65078 0 0)
(7.43497 0 0)
(9.57198 0 0)
(12.078 0 0)
(14.9596 0 0)
(18.2141 0 0)
(21.8312 0 0)
(25.7945 0 0)
(30.0829 0 0)
(34.6729 0 0)
(39.5396 0 0)
(44.658 0 0)
(50.0038 0 0)
(55.554 0 0)
(61.2874 0 0)
(67.1844 0 0)
(73.2275 0 0)
(79.4006 0 0)
(85.6897 0 0)
(92.0819 0 0)
(98.5662 0 0)
(105.132 0 0)
(111.772 0 0)
(118.471 0 0)
(125.243 0 0)
(132.022 0 0)
(138.951 0 0)
(145.693 0 0)
(152.876 0 0)
(159.466 0 0)
(166.81 0 0)
(173.584 0 0)
(180.456 0 0)
(187.901 0 0)
(194.334 0 0)
(201.672 0 0)
(208.473 0 0)
(215.411 0 0)
(222.206 0 0)
(228.94 0 0)
(235.592 0 0)
(242.094 0 0)
(248.373 0 0)
(254.371 0 0)
(260.043 0 0)
(265.318 0 0)
(270.085 0 0)
(274.23 0 0)
(277.673 0 0)
(280.36 0 0)
(282.26 0 0)
(283.475 0 0)
(284.282 0 0)
(284.93 0 0)
(285.399 0 0)
(285.479 0 0)
(285.164 0 0)
(284.843 0 0)
(284.975 0 0)
(285.576 0 0)
(286.112 0 0)
(285.989 0 0)
(285.158 0 0)
(284.24 0 0)
(284.046 0 0)
(284.919 0 0)
(286.405 0 0)
(287.521 0 0)
(287.416 0 0)
(285.84 0 0)
(283.149 0 0)
(280.01 0 0)
(277.114 0 0)
(274.994 0 0)
(273.926 0 0)
(273.939 0 0)
(274.869 0 0)
(276.42 0 0)
(278.251 0 0)
(280.058 0 0)
(281.637 0 0)
(282.89 0 0)
(283.802 0 0)
(284.406 0 0)
(284.73 0 0)
(284.758 0 0)
(284.282 0 0)
(283.229 0 0)
(280.499 0 0)
(277.523 0 0)
(271.995 0 0)
(268.581 0 0)
(266.427 0 0)
(264.561 0 0)
(266.064 0 0)
)
;

boundaryField
{
    sides
    {
        type            mywaveTransmissive;
        gamma           1.4;
        value           nonuniform List<vector> 2((266.122 0 0) (0.766339 0 0));
    }
    empty
    {
        type            empty;
    }
}


// ************************************************************************* //
