/*--------------------------------*- C++ -*----------------------------------*\
| =========                 |                                                 |
| \\      /  F ield         | OpenFOAM: The Open Source CFD Toolbox           |
|  \\    /   O peration     | Version:  2312                                  |
|   \\  /    A nd           | Website:  www.openfoam.com                      |
|    \\/     M anipulation  |                                                 |
\*---------------------------------------------------------------------------*/
FoamFile
{
    version     2.0;
    format      ascii;
    arch        "LSB;label=32;scalar=64";
    class       volScalarField;
    location    "0.006";
    object      p;
}
// * * * * * * * * * * * * * * * * * * * * * * * * * * * * * * * * * * * * * //

dimensions      [1 -1 -2 0 0 0 0];

internalField   nonuniform List<scalar> 
100
(
389776
385388
380588
375433
369955
364187
358164
351920
345490
338907
332201
325402
318535
311624
304691
297756
290834
283941
277092
270296
263566
256909
250334
243847
237456
231165
224978
218901
212937
207090
201362
195757
190278
184928
179710
174628
169685
164888
160239
155747
151418
147262
143289
139512
135946
132607
129515
126690
124151
121916
119998
118399
117111
116115
115375
114852
114499
114273
114136
114058
114019
114002
113998
114001
114009
114018
114029
114040
114050
114061
114072
114082
114092
114102
114111
114120
114129
114137
114145
114154
114164
114177
114198
114237
114309
114434
114635
114934
115336
115828
116371
116914
117401
117795
118079
118259
118360
118408
118427
118434
)
;

boundaryField
{
    sides
    {
        type            zeroGradient;
    }
    empty
    {
        type            empty;
    }
}


// ************************************************************************* //
