/*--------------------------------*- C++ -*----------------------------------*\
| =========                 |                                                 |
| \\      /  F ield         | OpenFOAM: The Open Source CFD Toolbox           |
|  \\    /   O peration     | Version:  2312                                  |
|   \\  /    A nd           | Website:  www.openfoam.com                      |
|    \\/     M anipulation  |                                                 |
\*---------------------------------------------------------------------------*/
FoamFile
{
    version     2.0;
    format      ascii;
    arch        "LSB;label=32;scalar=64";
    class       volScalarField;
    location    "0.006";
    object      rho;
}
// * * * * * * * * * * * * * * * * * * * * * * * * * * * * * * * * * * * * * //

dimensions      [1 -3 0 0 0 0 0];

internalField   nonuniform List<scalar> 
100
(
1.12071
1.11321
1.10496
1.09604
1.08651
1.0764
1.06578
1.05468
1.04316
1.03128
1.01908
1.00659
0.993876
0.980962
0.967885
0.954678
0.941369
0.927986
0.914551
0.901086
0.88761
0.874142
0.860696
0.847289
0.833932
0.820639
0.807421
0.794291
0.781257
0.768331
0.755523
0.742844
0.730304
0.717915
0.705689
0.69364
0.681784
0.670136
0.658718
0.647553
0.636666
0.626091
0.615865
0.606032
0.596642
0.587755
0.579435
0.57175
0.564772
0.558562
0.55317
0.548617
0.544892
0.541944
0.539686
0.538004
0.536769
0.535856
0.535155
0.534572
0.534033
0.533478
0.53285
0.532093
0.531136
0.529888
0.528225
0.525988
0.522971
0.51893
0.513593
0.506679
0.497937
0.487181
0.474332
0.459445
0.44272
0.424492
0.4052
0.385346
0.365441
0.345969
0.327352
0.309928
0.29395
0.279585
0.266919
0.255966
0.246671
0.238921
0.232556
0.227387
0.223222
0.219886
0.217228
0.215131
0.213499
0.212258
0.211352
0.210785
)
;

boundaryField
{
    sides
    {
        type            zeroGradient;
    }
    empty
    {
        type            empty;
    }
}


// ************************************************************************* //
