/*--------------------------------*- C++ -*----------------------------------*\
| =========                 |                                                 |
| \\      /  F ield         | OpenFOAM: The Open Source CFD Toolbox           |
|  \\    /   O peration     | Version:  2312                                  |
|   \\  /    A nd           | Website:  www.openfoam.com                      |
|    \\/     M anipulation  |                                                 |
\*---------------------------------------------------------------------------*/
FoamFile
{
    version     2.0;
    format      ascii;
    arch        "LSB;label=32;scalar=64";
    class       volScalarField;
    location    "0.006";
    object      T;
}
// * * * * * * * * * * * * * * * * * * * * * * * * * * * * * * * * * * * * * //

dimensions      [0 0 0 1 0 0 0];

internalField   nonuniform List<scalar> 
100
(
292.808
291.463
289.983
288.382
286.668
284.848
282.93
280.923
278.834
276.673
274.447
272.163
269.829
267.45
265.033
262.583
260.105
257.603
255.081
252.544
249.994
247.435
244.868
242.298
239.726
237.155
234.587
232.024
229.468
226.92
224.385
221.862
219.355
216.866
214.398
211.954
209.537
207.152
204.801
202.492
200.231
198.024
195.881
193.812
191.829
189.947
188.182
186.551
185.072
183.761
182.632
181.694
180.947
180.383
179.984
179.728
179.588
179.538
179.558
179.632
179.751
179.911
180.117
180.379
180.716
181.156
181.743
182.534
183.604
185.051
186.992
189.56
192.905
197.181
202.539
209.118
217.035
226.371
237.166
249.404
263.011
277.845
293.703
310.32
327.393
344.59
361.578
378.033
393.651
408.152
421.291
432.876
442.792
451.018
457.634
462.803
466.737
469.655
471.743
473.041
)
;

boundaryField
{
    sides
    {
        type            zeroGradient;
    }
    empty
    {
        type            empty;
    }
}


// ************************************************************************* //
