/*--------------------------------*- C++ -*----------------------------------*\
| =========                 |                                                 |
| \\      /  F ield         | OpenFOAM: The Open Source CFD Toolbox           |
|  \\    /   O peration     | Version:  2312                                  |
|   \\  /    A nd           | Website:  www.openfoam.com                      |
|    \\/     M anipulation  |                                                 |
\*---------------------------------------------------------------------------*/
FoamFile
{
    version     2.0;
    format      ascii;
    arch        "LSB;label=32;scalar=64";
    class       volScalarField;
    location    "0.006";
    object      thermo:e;
}
// * * * * * * * * * * * * * * * * * * * * * * * * * * * * * * * * * * * * * //

dimensions      [0 2 -2 0 0 0 0];

internalField   nonuniform List<scalar> 
100
(
503044
500734
498191
495441
492496
489369
486074
482625
479037
475324
471500
467576
463566
459479
455327
451117
446860
442562
438230
433871
429490
425093
420684
416268
411850
407433
403021
398617
394225
389849
385493
381159
376852
372577
368337
364138
359985
355886
351849
347882
343996
340205
336523
332968
329562
326330
323297
320495
317953
315701
313763
312151
310868
309898
309213
308772
308531
308447
308481
308608
308812
309087
309441
309891
310469
311227
312235
313593
315432
317918
321252
325665
331411
338757
347961
359265
372866
388906
407451
428476
451853
477338
504581
533130
562461
592006
621191
649461
676292
701205
723778
743682
760716
774848
786216
795096
801854
806868
810455
812685
)
;

boundaryField
{
    sides
    {
        type            zeroGradient;
    }
    empty
    {
        type            empty;
    }
}


// ************************************************************************* //
