/*--------------------------------*- C++ -*----------------------------------*\
| =========                 |                                                 |
| \\      /  F ield         | OpenFOAM: The Open Source CFD Toolbox           |
|  \\    /   O peration     | Version:  2312                                  |
|   \\  /    A nd           | Website:  www.openfoam.com                      |
|    \\/     M anipulation  |                                                 |
\*---------------------------------------------------------------------------*/
FoamFile
{
    version     2.0;
    format      ascii;
    arch        "LSB;label=32;scalar=64";
    class       volVectorField;
    location    "0.006";
    object      U;
}
// * * * * * * * * * * * * * * * * * * * * * * * * * * * * * * * * * * * * * //

dimensions      [0 1 -1 0 0 0 0];

internalField   nonuniform List<vector> 
100
(
(27.432 0 0)
(32.5143 0 0)
(38.1499 0 0)
(44.2819 0 0)
(50.8857 0 0)
(57.9339 0 0)
(65.397 0 0)
(73.2448 0 0)
(81.4475 0 0)
(89.9758 0 0)
(98.8018 0 0)
(107.899 0 0)
(117.244 0 0)
(126.812 0 0)
(136.584 0 0)
(146.541 0 0)
(156.664 0 0)
(166.938 0 0)
(177.349 0 0)
(187.882 0 0)
(198.526 0 0)
(209.27 0 0)
(220.103 0 0)
(231.016 0 0)
(241.998 0 0)
(253.043 0 0)
(264.14 0 0)
(275.281 0 0)
(286.459 0 0)
(297.664 0 0)
(308.888 0 0)
(320.121 0 0)
(331.353 0 0)
(342.572 0 0)
(353.766 0 0)
(364.919 0 0)
(376.016 0 0)
(387.036 0 0)
(397.956 0 0)
(408.747 0 0)
(419.378 0 0)
(429.808 0 0)
(439.99 0 0)
(449.867 0 0)
(459.375 0 0)
(468.438 0 0)
(476.969 0 0)
(484.88 0 0)
(492.076 0 0)
(498.474 0 0)
(504.007 0 0)
(508.639 0 0)
(512.376 0 0)
(515.271 0 0)
(517.415 0 0)
(518.93 0 0)
(519.952 0 0)
(520.608 0 0)
(521.009 0 0)
(521.242 0 0)
(521.369 0 0)
(521.433 0 0)
(521.461 0 0)
(521.469 0 0)
(521.468 0 0)
(521.461 0 0)
(521.453 0 0)
(521.445 0 0)
(521.437 0 0)
(521.432 0 0)
(521.428 0 0)
(521.426 0 0)
(521.426 0 0)
(521.428 0 0)
(521.432 0 0)
(521.438 0 0)
(521.445 0 0)
(521.455 0 0)
(521.465 0 0)
(521.474 0 0)
(521.479 0 0)
(521.469 0 0)
(521.421 0 0)
(521.293 0 0)
(521.015 0 0)
(520.488 0 0)
(519.598 0 0)
(518.245 0 0)
(516.394 0 0)
(514.112 0 0)
(511.576 0 0)
(509.038 0 0)
(506.757 0 0)
(504.918 0 0)
(503.597 0 0)
(502.759 0 0)
(502.299 0 0)
(502.092 0 0)
(502.028 0 0)
(502.034 0 0)
)
;

boundaryField
{
    sides
    {
        type            zeroGradient;
    }
    empty
    {
        type            empty;
    }
}


// ************************************************************************* //
