/*--------------------------------*- C++ -*----------------------------------*\
| =========                 |                                                 |
| \\      /  F ield         | OpenFOAM: The Open Source CFD Toolbox           |
|  \\    /   O peration     | Version:  2312                                  |
|   \\  /    A nd           | Website:  www.openfoam.com                      |
|    \\/     M anipulation  |                                                 |
\*---------------------------------------------------------------------------*/
FoamFile
{
    version     2.0;
    format      ascii;
    arch        "LSB;label=32;scalar=64";
    class       volScalarField;
    location    "0.0004";
    object      p;
}
// * * * * * * * * * * * * * * * * * * * * * * * * * * * * * * * * * * * * * //

dimensions      [1 -1 -2 0 0 0 0];

internalField   nonuniform List<scalar> 
100
(
6.29706e+08
6.29412e+08
6.2947e+08
6.29836e+08
6.30433e+08
6.3118e+08
6.31986e+08
6.32777e+08
6.33518e+08
6.34198e+08
6.34819e+08
6.35384e+08
6.35902e+08
6.36378e+08
6.36818e+08
6.37225e+08
6.37602e+08
6.37953e+08
6.3828e+08
6.38586e+08
6.38872e+08
6.39139e+08
6.3939e+08
6.39625e+08
6.39845e+08
6.40053e+08
6.40248e+08
6.40432e+08
6.40606e+08
6.40769e+08
6.40923e+08
6.41069e+08
6.41206e+08
6.41336e+08
6.41459e+08
6.41576e+08
6.41687e+08
6.41791e+08
6.41891e+08
6.41986e+08
6.42076e+08
6.42163e+08
6.42245e+08
6.42324e+08
6.42399e+08
6.42472e+08
6.42542e+08
6.42609e+08
6.42675e+08
6.42738e+08
6.428e+08
6.4286e+08
6.42919e+08
6.42977e+08
6.43034e+08
6.43091e+08
6.43147e+08
6.43203e+08
6.4326e+08
6.43316e+08
6.43372e+08
6.43429e+08
6.43487e+08
6.43545e+08
6.43604e+08
6.43664e+08
6.43724e+08
6.43785e+08
6.43846e+08
6.43908e+08
6.43971e+08
6.44033e+08
6.44095e+08
6.44157e+08
6.44218e+08
6.44277e+08
6.44335e+08
6.44391e+08
6.44443e+08
6.44492e+08
6.44537e+08
6.44576e+08
6.4461e+08
6.44638e+08
6.44658e+08
6.44671e+08
6.44675e+08
6.44669e+08
6.44654e+08
6.44628e+08
6.44591e+08
6.44542e+08
6.44482e+08
6.4441e+08
6.44327e+08
6.44231e+08
6.44125e+08
6.44008e+08
6.43886e+08
6.43778e+08
)
;

boundaryField
{
    sides
    {
        type            zeroGradient;
    }
    empty
    {
        type            empty;
    }
}


// ************************************************************************* //
