/*--------------------------------*- C++ -*----------------------------------*\
| =========                 |                                                 |
| \\      /  F ield         | OpenFOAM: The Open Source CFD Toolbox           |
|  \\    /   O peration     | Version:  2312                                  |
|   \\  /    A nd           | Website:  www.openfoam.com                      |
|    \\/     M anipulation  |                                                 |
\*---------------------------------------------------------------------------*/
FoamFile
{
    version     2.0;
    format      ascii;
    arch        "LSB;label=32;scalar=64";
    class       volScalarField;
    location    "0.0004";
    object      rho;
}
// * * * * * * * * * * * * * * * * * * * * * * * * * * * * * * * * * * * * * //

dimensions      [1 -3 0 0 0 0 0];

internalField   nonuniform List<scalar> 
100
(
0.0964473
0.0964023
0.0964112
0.0964671
0.0965586
0.0966731
0.0967965
0.0969176
0.0970311
0.0971354
0.0972304
0.097317
0.0973963
0.0974692
0.0975366
0.0975989
0.0976567
0.0977105
0.0977606
0.0978074
0.0978511
0.0978921
0.0979304
0.0979665
0.0980003
0.0980321
0.098062
0.0980902
0.0981167
0.0981417
0.0981653
0.0981876
0.0982087
0.0982286
0.0982475
0.0982653
0.0982823
0.0982983
0.0983136
0.0983281
0.098342
0.0983552
0.0983678
0.0983798
0.0983914
0.0984025
0.0984132
0.0984236
0.0984336
0.0984433
0.0984527
0.098462
0.098471
0.0984799
0.0984887
0.0984974
0.098506
0.0985146
0.0985232
0.0985318
0.0985405
0.0985492
0.098558
0.0985669
0.0985759
0.0985851
0.0985943
0.0986036
0.0986131
0.0986226
0.0986321
0.0986417
0.0986512
0.0986607
0.09867
0.0986791
0.0986879
0.0986964
0.0987044
0.0987119
0.0987188
0.0987248
0.0987301
0.0987343
0.0987374
0.0987393
0.0987399
0.0987391
0.0987367
0.0987327
0.0987271
0.0987196
0.0987104
0.0986994
0.0986866
0.098672
0.0986557
0.0986379
0.0986192
0.0986027
)
;

boundaryField
{
    sides
    {
        type            zeroGradient;
    }
    empty
    {
        type            empty;
    }
}


// ************************************************************************* //
