/*--------------------------------*- C++ -*----------------------------------*\
| =========                 |                                                 |
| \\      /  F ield         | OpenFOAM: The Open Source CFD Toolbox           |
|  \\    /   O peration     | Version:  2312                                  |
|   \\  /    A nd           | Website:  www.openfoam.com                      |
|    \\/     M anipulation  |                                                 |
\*---------------------------------------------------------------------------*/
FoamFile
{
    version     2.0;
    format      ascii;
    arch        "LSB;label=32;scalar=64";
    class       volScalarField;
    location    "0.0004";
    object      thermo:e;
}
// * * * * * * * * * * * * * * * * * * * * * * * * * * * * * * * * * * * * * //

dimensions      [0 2 -2 0 0 0 0];

internalField   nonuniform List<scalar> 
100
(
1.03571e+10
1.06716e+10
1.12257e+10
1.19578e+10
1.28211e+10
1.37802e+10
1.48079e+10
1.58838e+10
1.69918e+10
1.81199e+10
1.92583e+10
2.03996e+10
2.15374e+10
2.26668e+10
2.37836e+10
2.48841e+10
2.59654e+10
2.70249e+10
2.80603e+10
2.90696e+10
3.00512e+10
3.10036e+10
3.19256e+10
3.28161e+10
3.36744e+10
3.44998e+10
3.52917e+10
3.605e+10
3.67744e+10
3.74649e+10
3.81219e+10
3.87454e+10
3.9336e+10
3.98942e+10
4.04206e+10
4.0916e+10
4.13812e+10
4.18172e+10
4.22248e+10
4.26052e+10
4.29593e+10
4.32884e+10
4.35935e+10
4.38757e+10
4.41363e+10
4.43764e+10
4.45971e+10
4.47996e+10
4.4985e+10
4.51544e+10
4.53088e+10
4.54493e+10
4.55768e+10
4.56924e+10
4.57968e+10
4.58911e+10
4.5976e+10
4.60523e+10
4.61208e+10
4.6182e+10
4.62367e+10
4.62855e+10
4.63289e+10
4.63675e+10
4.64016e+10
4.64319e+10
4.64586e+10
4.64821e+10
4.65029e+10
4.65211e+10
4.6537e+10
4.6551e+10
4.65633e+10
4.65739e+10
4.65832e+10
4.65913e+10
4.65983e+10
4.66044e+10
4.66096e+10
4.66141e+10
4.6618e+10
4.66212e+10
4.6624e+10
4.66263e+10
4.66282e+10
4.66298e+10
4.6631e+10
4.66319e+10
4.66325e+10
4.66329e+10
4.6633e+10
4.66329e+10
4.66326e+10
4.66321e+10
4.66315e+10
4.66306e+10
4.66297e+10
4.66285e+10
4.66273e+10
4.66263e+10
)
;

boundaryField
{
    sides
    {
        type            zeroGradient;
    }
    empty
    {
        type            empty;
    }
}


// ************************************************************************* //
