/*--------------------------------*- C++ -*----------------------------------*\
| =========                 |                                                 |
| \\      /  F ield         | OpenFOAM: The Open Source CFD Toolbox           |
|  \\    /   O peration     | Version:  2312                                  |
|   \\  /    A nd           | Website:  www.openfoam.com                      |
|    \\/     M anipulation  |                                                 |
\*---------------------------------------------------------------------------*/
FoamFile
{
    version     2.0;
    format      ascii;
    arch        "LSB;label=32;scalar=64";
    class       volVectorField;
    location    "0.0004";
    object      U;
}
// * * * * * * * * * * * * * * * * * * * * * * * * * * * * * * * * * * * * * //

dimensions      [0 1 -1 0 0 0 0];

internalField   nonuniform List<vector> 
100
(
(-15376.3 0 0)
(-15312.1 0 0)
(-15259.4 0 0)
(-15200 0 0)
(-15121.4 0 0)
(-15026 0 0)
(-14923.4 0 0)
(-14822.6 0 0)
(-14728.3 0 0)
(-14641.8 0 0)
(-14563.1 0 0)
(-14491.4 0 0)
(-14425.9 0 0)
(-14365.7 0 0)
(-14310.3 0 0)
(-14259 0 0)
(-14211.5 0 0)
(-14167.4 0 0)
(-14126.4 0 0)
(-14088.1 0 0)
(-14052.4 0 0)
(-14019 0 0)
(-13987.7 0 0)
(-13958.4 0 0)
(-13931 0 0)
(-13905.2 0 0)
(-13880.9 0 0)
(-13858.1 0 0)
(-13836.7 0 0)
(-13816.5 0 0)
(-13797.5 0 0)
(-13779.6 0 0)
(-13762.6 0 0)
(-13746.7 0 0)
(-13731.6 0 0)
(-13717.3 0 0)
(-13703.8 0 0)
(-13690.9 0 0)
(-13678.8 0 0)
(-13667.2 0 0)
(-13656.2 0 0)
(-13645.8 0 0)
(-13635.8 0 0)
(-13626.2 0 0)
(-13617.1 0 0)
(-13608.3 0 0)
(-13599.8 0 0)
(-13591.7 0 0)
(-13583.8 0 0)
(-13576.1 0 0)
(-13568.6 0 0)
(-13561.3 0 0)
(-13554.1 0 0)
(-13547 0 0)
(-13540 0 0)
(-13533.1 0 0)
(-13526.1 0 0)
(-13519.2 0 0)
(-13512.2 0 0)
(-13505.2 0 0)
(-13498.1 0 0)
(-13491 0 0)
(-13483.7 0 0)
(-13476.3 0 0)
(-13468.8 0 0)
(-13461.1 0 0)
(-13453.4 0 0)
(-13445.5 0 0)
(-13437.4 0 0)
(-13429.3 0 0)
(-13421.1 0 0)
(-13412.9 0 0)
(-13404.6 0 0)
(-13396.3 0 0)
(-13388.1 0 0)
(-13380 0 0)
(-13372.2 0 0)
(-13364.5 0 0)
(-13357.2 0 0)
(-13350.3 0 0)
(-13343.9 0 0)
(-13338.1 0 0)
(-13333 0 0)
(-13328.6 0 0)
(-13325.1 0 0)
(-13322.6 0 0)
(-13321.2 0 0)
(-13320.9 0 0)
(-13321.9 0 0)
(-13324.1 0 0)
(-13327.8 0 0)
(-13332.9 0 0)
(-13339.5 0 0)
(-13347.5 0 0)
(-13357.1 0 0)
(-13368.1 0 0)
(-13380.6 0 0)
(-13394.4 0 0)
(-13408.9 0 0)
(-13421.8 0 0)
)
;

boundaryField
{
    sides
    {
        type            zeroGradient;
    }
    empty
    {
        type            empty;
    }
}


// ************************************************************************* //
