0.005 	5.8386e+06 	2252.47
0.015 	2.97397e+06 	1902.9
0.025 	1.34499e+06 	1560.49
0.035 	540641 	1242.53
0.045 	193948 	961.618
0.055 	62449.9 	724.376
0.065 	18163.7 	531.965
0.075 	4802.66 	381.462
0.085 	1161.5 	267.508
0.095 	258.405 	183.72
0.105 	53.1622 	123.732
0.115 	10.1625 	81.8147
0.125 	1.8129 	53.171
0.135 	0.302996 	33.997
0.145 	0.0476145 	21.405
0.155 	0.00705809 	13.2817
0.165 	0.000989837 	8.12779
0.175 	0.000131685 	4.90869
0.185 	1.66602e-05 	2.92753
0.195 	2.00897e-06 	1.72514
0.205 	2.31382e-07 	1.00499
0.215 	2.55076e-08 	0.579094
0.225 	2.70164e-09 	0.330361
0.235 	2.80816e-10 	0.18758
0.245 	3.4166e-11 	0.110785
0.255 	1.00068e-11 	0.0814996
0.265 	7.72858e-12 	0.0764023
0.275 	7.52147e-12 	0.0758852
0.285 	7.50329e-12 	0.0758393
0.295 	7.50175e-12 	0.0758354
0.305 	7.50162e-12 	0.0758351
0.315 	7.50161e-12 	0.0758351
0.325 	7.50161e-12 	0.0758351
0.335 	7.50161e-12 	0.0758351
0.345 	7.50161e-12 	0.0758351
0.355 	7.50161e-12 	0.0758351
0.365 	7.50161e-12 	0.0758351
0.375 	7.50161e-12 	0.0758351
0.385 	7.50161e-12 	0.0758351
0.395 	7.50161e-12 	0.0758351
0.405 	7.50161e-12 	0.0758351
0.415 	7.50161e-12 	0.0758351
0.425 	7.50161e-12 	0.0758351
0.435 	7.50161e-12 	0.0758351
0.445 	7.50161e-12 	0.0758351
0.455 	7.50161e-12 	0.0758351
0.465 	7.50161e-12 	0.0758351
0.475 	7.50161e-12 	0.0758351
0.485 	7.50161e-12 	0.0758351
0.495 	7.50161e-12 	0.0758351
0.505 	7.50161e-12 	0.0758351
0.515 	7.50161e-12 	0.0758351
0.525 	7.50161e-12 	0.0758351
0.535 	7.50161e-12 	0.0758351
0.545 	7.50161e-12 	0.0758351
0.555 	7.50161e-12 	0.0758351
0.565 	7.50161e-12 	0.0758351
0.575 	7.50161e-12 	0.0758351
0.585 	7.50161e-12 	0.0758351
0.595 	7.50161e-12 	0.0758351
0.605 	7.50161e-12 	0.0758351
0.615 	7.50161e-12 	0.0758351
0.625 	7.50161e-12 	0.0758351
0.635 	7.50161e-12 	0.0758351
0.645 	7.50161e-12 	0.0758351
0.655 	7.50161e-12 	0.0758351
0.665 	7.50161e-12 	0.0758351
0.675 	7.50161e-12 	0.0758351
0.685 	7.50161e-12 	0.0758351
0.695 	7.50161e-12 	0.0758351
0.705 	7.50161e-12 	0.0758351
0.715 	7.50161e-12 	0.0758351
0.725 	7.50161e-12 	0.0758351
0.735 	7.50161e-12 	0.0758351
0.745 	7.50161e-12 	0.0758351
0.755 	7.50161e-12 	0.0758351
0.765 	7.50161e-12 	0.0758351
0.775 	7.50161e-12 	0.0758351
0.785 	7.50161e-12 	0.0758351
0.795 	7.50161e-12 	0.0758351
0.805 	7.50161e-12 	0.0758351
0.815 	7.50161e-12 	0.0758351
0.825 	7.50161e-12 	0.0758351
0.835 	7.50161e-12 	0.0758351
0.845 	7.50161e-12 	0.0758351
0.855 	7.50161e-12 	0.0758351
0.865 	7.50161e-12 	0.0758351
0.875 	7.50161e-12 	0.0758351
0.885 	7.50161e-12 	0.0758351
0.895 	7.50161e-12 	0.0758351
0.905 	7.50161e-12 	0.0758351
0.915 	7.50161e-12 	0.0758351
0.925 	7.50161e-12 	0.0758351
0.935 	7.50161e-12 	0.0758351
0.945 	7.50161e-12 	0.0758351
0.955 	7.50161e-12 	0.0758351
0.965 	7.50161e-12 	0.0758351
0.975 	7.50161e-12 	0.0758351
0.985 	7.50161e-12 	0.0758351
0.995 	7.50161e-12 	0.0758351
1.005 	7.50161e-12 	0.0758351
1.015 	7.50161e-12 	0.0758351
1.025 	7.50161e-12 	0.0758351
1.035 	7.50161e-12 	0.0758351
1.045 	7.50161e-12 	0.0758351
1.055 	7.50161e-12 	0.0758351
1.065 	7.50161e-12 	0.0758351
1.075 	7.50161e-12 	0.0758351
1.085 	7.50161e-12 	0.0758351
1.095 	7.50161e-12 	0.0758351
1.105 	7.50161e-12 	0.0758351
1.115 	7.50161e-12 	0.0758351
1.125 	7.50161e-12 	0.0758351
1.135 	7.50161e-12 	0.0758351
1.145 	7.50161e-12 	0.0758351
1.155 	7.50161e-12 	0.0758351
1.165 	7.50161e-12 	0.0758351
1.175 	7.50161e-12 	0.0758351
1.185 	7.50161e-12 	0.0758351
1.195 	7.50161e-12 	0.0758351
1.205 	7.50161e-12 	0.0758351
1.215 	7.50161e-12 	0.0758351
1.225 	7.50161e-12 	0.0758351
1.235 	7.50161e-12 	0.0758351
1.245 	7.50161e-12 	0.0758351
1.255 	7.50161e-12 	0.0758351
1.265 	7.50161e-12 	0.0758351
1.275 	7.50161e-12 	0.0758351
1.285 	7.50161e-12 	0.0758351
1.295 	7.50161e-12 	0.0758351
1.305 	7.50161e-12 	0.0758351
1.315 	7.50161e-12 	0.0758351
1.325 	7.50161e-12 	0.0758351
1.335 	7.50161e-12 	0.0758351
1.345 	7.50161e-12 	0.0758351
1.355 	7.50161e-12 	0.0758351
1.365 	7.50161e-12 	0.0758351
1.375 	7.50161e-12 	0.0758351
1.385 	7.50161e-12 	0.0758351
1.395 	7.50161e-12 	0.0758351
1.405 	7.50161e-12 	0.0758351
1.415 	7.50161e-12 	0.0758351
1.425 	7.50161e-12 	0.0758351
1.435 	7.50161e-12 	0.0758351
1.445 	7.50161e-12 	0.0758351
1.455 	7.50161e-12 	0.0758351
1.465 	7.50161e-12 	0.0758351
1.475 	7.50161e-12 	0.0758351
1.485 	7.50161e-12 	0.0758351
1.495 	7.50161e-12 	0.0758351
1.505 	7.50161e-12 	0.0758351
1.515 	7.50161e-12 	0.0758351
1.525 	7.50161e-12 	0.0758351
1.535 	7.50161e-12 	0.0758351
1.545 	7.50161e-12 	0.0758351
1.555 	7.50161e-12 	0.0758351
1.565 	7.50161e-12 	0.0758351
1.575 	7.50161e-12 	0.0758351
1.585 	7.50161e-12 	0.0758351
1.595 	7.50161e-12 	0.0758351
1.605 	7.50161e-12 	0.0758351
1.615 	7.50161e-12 	0.0758351
1.625 	7.50161e-12 	0.0758351
1.635 	7.50161e-12 	0.0758351
1.645 	7.50161e-12 	0.0758351
1.655 	7.50161e-12 	0.0758351
1.665 	7.50161e-12 	0.0758351
1.675 	7.50161e-12 	0.0758351
1.685 	7.50161e-12 	0.0758351
1.695 	7.50161e-12 	0.0758351
1.705 	7.50161e-12 	0.0758351
1.715 	7.50161e-12 	0.0758351
1.725 	7.50161e-12 	0.0758351
1.735 	7.50161e-12 	0.0758351
1.745 	7.50161e-12 	0.0758351
1.755 	7.50161e-12 	0.0758351
1.765 	7.50161e-12 	0.0758351
1.775 	7.50161e-12 	0.0758351
1.785 	7.50161e-12 	0.0758351
1.795 	7.50161e-12 	0.0758351
1.805 	7.50161e-12 	0.0758351
1.815 	7.50161e-12 	0.0758351
1.825 	7.50161e-12 	0.0758351
1.835 	7.50161e-12 	0.0758351
1.845 	7.50161e-12 	0.0758351
1.855 	7.50161e-12 	0.0758351
1.865 	7.50161e-12 	0.0758351
1.875 	7.50161e-12 	0.0758351
1.885 	7.50161e-12 	0.0758351
1.895 	7.50161e-12 	0.0758351
1.905 	7.50161e-12 	0.0758351
1.915 	7.50161e-12 	0.0758351
1.925 	7.50161e-12 	0.0758351
1.935 	7.50161e-12 	0.0758351
1.945 	7.50161e-12 	0.0758351
1.955 	7.50161e-12 	0.0758351
1.965 	7.50161e-12 	0.0758351
1.975 	7.50161e-12 	0.0758351
1.985 	7.50161e-12 	0.0758351
1.995 	7.50161e-12 	0.0758351
2.005 	7.50161e-12 	0.0758351
2.015 	7.50161e-12 	0.0758351
2.025 	7.50161e-12 	0.0758351
2.035 	7.50161e-12 	0.0758351
2.045 	7.50161e-12 	0.0758351
2.055 	7.50161e-12 	0.0758351
2.065 	7.50161e-12 	0.0758351
2.075 	7.50161e-12 	0.0758351
2.085 	7.50161e-12 	0.0758351
2.095 	7.50161e-12 	0.0758351
2.105 	7.50161e-12 	0.0758351
2.115 	7.50161e-12 	0.0758351
2.125 	7.50161e-12 	0.0758351
2.135 	7.50161e-12 	0.0758351
2.145 	7.50161e-12 	0.0758351
2.155 	7.50161e-12 	0.0758351
2.165 	7.50161e-12 	0.0758351
2.175 	7.50161e-12 	0.0758351
2.185 	7.50161e-12 	0.0758351
2.195 	7.50161e-12 	0.0758351
2.205 	7.50161e-12 	0.0758351
2.215 	7.50161e-12 	0.0758351
2.225 	7.50161e-12 	0.0758351
2.235 	7.50161e-12 	0.0758351
2.245 	7.50161e-12 	0.0758351
2.255 	7.50161e-12 	0.0758351
2.265 	7.50161e-12 	0.0758351
2.275 	7.50161e-12 	0.0758351
2.285 	7.50161e-12 	0.0758351
2.295 	7.50161e-12 	0.0758351
2.305 	7.50161e-12 	0.0758351
2.315 	7.50161e-12 	0.0758351
2.325 	7.50161e-12 	0.0758351
2.335 	7.50161e-12 	0.0758351
2.345 	7.50161e-12 	0.0758351
2.355 	7.50161e-12 	0.0758351
2.365 	7.50161e-12 	0.0758351
2.375 	7.50161e-12 	0.0758351
2.385 	7.50161e-12 	0.0758351
2.395 	7.50161e-12 	0.0758351
2.405 	7.50161e-12 	0.0758351
2.415 	7.50161e-12 	0.0758351
2.425 	7.50161e-12 	0.0758351
2.435 	7.50161e-12 	0.0758351
2.445 	7.50161e-12 	0.0758351
2.455 	7.50161e-12 	0.0758351
2.465 	7.50161e-12 	0.0758351
2.475 	7.50161e-12 	0.0758351
2.485 	7.50161e-12 	0.0758351
2.495 	7.50161e-12 	0.0758351
2.505 	7.50161e-12 	0.0758351
2.515 	7.50161e-12 	0.0758351
2.525 	7.50161e-12 	0.0758351
2.535 	7.50161e-12 	0.0758351
2.545 	7.50161e-12 	0.0758351
2.555 	7.50161e-12 	0.0758351
2.565 	7.50161e-12 	0.0758351
2.575 	7.50161e-12 	0.0758351
2.585 	7.50161e-12 	0.0758351
2.595 	7.50161e-12 	0.0758351
2.605 	7.50161e-12 	0.0758351
2.615 	7.50161e-12 	0.0758351
2.625 	7.50161e-12 	0.0758351
2.635 	7.50161e-12 	0.0758351
2.645 	7.50161e-12 	0.0758351
2.655 	7.50161e-12 	0.0758351
2.665 	7.50161e-12 	0.0758351
2.675 	7.50161e-12 	0.0758351
2.685 	7.50161e-12 	0.0758351
2.695 	7.50161e-12 	0.0758351
2.705 	7.50161e-12 	0.0758351
2.715 	7.50161e-12 	0.0758351
2.725 	7.50161e-12 	0.0758351
2.735 	7.50161e-12 	0.0758351
2.745 	7.50161e-12 	0.0758351
2.755 	7.50161e-12 	0.0758351
2.765 	7.50161e-12 	0.0758351
2.775 	7.50161e-12 	0.0758351
2.785 	7.50161e-12 	0.0758351
2.795 	7.50161e-12 	0.0758351
2.805 	7.50161e-12 	0.0758351
2.815 	7.50161e-12 	0.0758351
2.825 	7.50161e-12 	0.0758351
2.835 	7.50161e-12 	0.0758351
2.845 	7.50161e-12 	0.0758351
2.855 	7.50161e-12 	0.0758351
2.865 	7.50161e-12 	0.0758351
2.875 	7.50161e-12 	0.0758351
2.885 	7.50161e-12 	0.0758351
2.895 	7.50161e-12 	0.0758351
2.905 	7.50161e-12 	0.0758351
2.915 	7.50161e-12 	0.0758351
2.925 	7.50161e-12 	0.0758351
2.935 	7.50161e-12 	0.0758351
2.945 	7.50161e-12 	0.0758351
2.955 	7.50161e-12 	0.0758351
2.965 	7.50161e-12 	0.0758351
2.975 	7.50161e-12 	0.0758351
2.985 	7.50161e-12 	0.0758351
2.995 	7.50161e-12 	0.0758351
3.005 	7.50161e-12 	0.0758351
3.015 	7.50161e-12 	0.0758351
3.025 	7.50161e-12 	0.0758351
3.035 	7.50161e-12 	0.0758351
3.045 	7.50161e-12 	0.0758351
3.055 	7.50161e-12 	0.0758351
3.065 	7.50161e-12 	0.0758351
3.075 	7.50161e-12 	0.0758351
3.085 	7.50161e-12 	0.0758351
3.095 	7.50161e-12 	0.0758351
3.105 	7.50161e-12 	0.0758351
3.115 	7.50161e-12 	0.0758351
3.125 	7.50161e-12 	0.0758351
3.135 	7.50161e-12 	0.0758351
3.145 	7.50161e-12 	0.0758351
3.155 	7.50161e-12 	0.0758351
3.165 	7.50161e-12 	0.0758351
3.175 	7.50161e-12 	0.0758351
3.185 	7.50161e-12 	0.0758351
3.195 	7.50161e-12 	0.0758351
3.205 	7.50161e-12 	0.0758351
3.215 	7.50161e-12 	0.0758351
3.225 	7.50161e-12 	0.0758351
3.235 	7.50161e-12 	0.0758351
3.245 	7.50161e-12 	0.0758351
3.255 	7.50161e-12 	0.0758351
3.265 	7.50161e-12 	0.0758351
3.275 	7.50161e-12 	0.0758351
3.285 	7.50161e-12 	0.0758351
3.295 	7.50161e-12 	0.0758351
3.305 	7.50161e-12 	0.0758351
3.315 	7.50161e-12 	0.0758351
3.325 	7.50161e-12 	0.0758351
3.335 	7.50161e-12 	0.0758351
3.345 	7.50161e-12 	0.0758351
3.355 	7.50161e-12 	0.0758351
3.365 	7.50161e-12 	0.0758351
3.375 	7.50161e-12 	0.0758351
3.385 	7.50161e-12 	0.0758351
3.395 	7.50161e-12 	0.0758351
3.405 	7.50161e-12 	0.0758351
3.415 	7.50161e-12 	0.0758351
3.425 	7.50161e-12 	0.0758351
3.435 	7.50161e-12 	0.0758351
3.445 	7.50161e-12 	0.0758351
3.455 	7.50161e-12 	0.0758351
3.465 	7.50161e-12 	0.0758351
3.475 	7.50161e-12 	0.0758351
3.485 	7.50161e-12 	0.0758351
3.495 	7.50161e-12 	0.0758351
3.505 	7.50161e-12 	0.0758351
3.515 	7.50161e-12 	0.0758351
3.525 	7.50161e-12 	0.0758351
3.535 	7.50161e-12 	0.0758351
3.545 	7.50161e-12 	0.0758351
3.555 	7.50161e-12 	0.0758351
3.565 	7.50161e-12 	0.0758351
3.575 	7.50161e-12 	0.0758351
3.585 	7.50161e-12 	0.0758351
3.595 	7.50161e-12 	0.0758351
3.605 	7.50161e-12 	0.0758351
3.615 	7.50161e-12 	0.0758351
3.625 	7.50161e-12 	0.0758351
3.635 	7.50161e-12 	0.0758351
3.645 	7.50161e-12 	0.0758351
3.655 	7.50161e-12 	0.0758351
3.665 	7.50161e-12 	0.0758351
3.675 	7.50161e-12 	0.0758351
3.685 	7.50161e-12 	0.0758351
3.695 	7.50161e-12 	0.0758351
3.705 	7.50161e-12 	0.0758351
3.715 	7.50161e-12 	0.0758351
3.725 	7.50161e-12 	0.0758351
3.735 	7.50161e-12 	0.0758351
3.745 	7.50161e-12 	0.0758351
3.755 	7.50161e-12 	0.0758351
3.765 	7.50161e-12 	0.0758351
3.775 	7.50161e-12 	0.0758351
3.785 	7.50161e-12 	0.0758351
3.795 	7.50161e-12 	0.0758351
3.805 	7.50161e-12 	0.0758351
3.815 	7.50161e-12 	0.0758351
3.825 	7.50161e-12 	0.0758351
3.835 	7.50161e-12 	0.0758351
3.845 	7.50161e-12 	0.0758351
3.855 	7.50161e-12 	0.0758351
3.865 	7.50161e-12 	0.0758351
3.875 	7.50161e-12 	0.0758351
3.885 	7.50161e-12 	0.0758351
3.895 	7.50161e-12 	0.0758351
3.905 	7.50161e-12 	0.0758351
3.915 	7.50161e-12 	0.0758351
3.925 	7.50161e-12 	0.0758351
3.935 	7.50161e-12 	0.0758351
3.945 	7.50161e-12 	0.0758351
3.955 	7.50161e-12 	0.0758351
3.965 	7.50161e-12 	0.0758351
3.975 	7.50161e-12 	0.0758351
3.985 	7.50161e-12 	0.0758351
3.995 	7.50161e-12 	0.0758351
4.005 	7.50161e-12 	0.0758351
4.015 	7.50161e-12 	0.0758351
4.025 	7.50161e-12 	0.0758351
4.035 	7.50161e-12 	0.0758351
4.045 	7.50161e-12 	0.0758351
4.055 	7.50161e-12 	0.0758351
4.065 	7.50161e-12 	0.0758351
4.075 	7.50161e-12 	0.0758351
4.085 	7.50161e-12 	0.0758351
4.095 	7.50161e-12 	0.0758351
4.105 	7.50161e-12 	0.0758351
4.115 	7.50161e-12 	0.0758351
4.125 	7.50161e-12 	0.0758351
4.135 	7.50161e-12 	0.0758351
4.145 	7.50161e-12 	0.0758351
4.155 	7.50161e-12 	0.0758351
4.165 	7.50161e-12 	0.0758351
4.175 	7.50161e-12 	0.0758351
4.185 	7.50161e-12 	0.0758351
4.195 	7.50161e-12 	0.0758351
4.205 	7.50161e-12 	0.0758351
4.215 	7.50161e-12 	0.0758351
4.225 	7.50161e-12 	0.0758351
4.235 	7.50161e-12 	0.0758351
4.245 	7.50161e-12 	0.0758351
4.255 	7.50161e-12 	0.0758351
4.265 	7.50161e-12 	0.0758351
4.275 	7.50161e-12 	0.0758351
4.285 	7.50161e-12 	0.0758351
4.295 	7.50161e-12 	0.0758351
4.305 	7.50161e-12 	0.0758351
4.315 	7.50161e-12 	0.0758351
4.325 	7.50161e-12 	0.0758351
4.335 	7.50161e-12 	0.0758351
4.345 	7.50161e-12 	0.0758351
4.355 	7.50161e-12 	0.0758351
4.365 	7.50161e-12 	0.0758351
4.375 	7.50161e-12 	0.0758351
4.385 	7.50161e-12 	0.0758351
4.395 	7.50161e-12 	0.0758351
4.405 	7.50161e-12 	0.0758351
4.415 	7.50161e-12 	0.0758351
4.425 	7.50161e-12 	0.0758351
4.435 	7.50161e-12 	0.0758351
4.445 	7.50161e-12 	0.0758351
4.455 	7.50161e-12 	0.0758351
4.465 	7.50161e-12 	0.0758351
4.475 	7.50161e-12 	0.0758351
4.485 	7.50161e-12 	0.0758351
4.495 	7.50161e-12 	0.0758351
4.505 	7.50161e-12 	0.0758351
4.515 	7.50161e-12 	0.0758351
4.525 	7.50161e-12 	0.0758351
4.535 	7.50161e-12 	0.0758351
4.545 	7.50161e-12 	0.0758351
4.555 	7.50161e-12 	0.0758351
4.565 	7.50161e-12 	0.0758351
4.575 	7.50161e-12 	0.0758351
4.585 	7.50161e-12 	0.0758351
4.595 	7.50161e-12 	0.0758351
4.605 	7.50161e-12 	0.0758351
4.615 	7.50161e-12 	0.0758351
4.625 	7.50161e-12 	0.0758351
4.635 	7.50161e-12 	0.0758351
4.645 	7.50161e-12 	0.0758351
4.655 	7.50161e-12 	0.0758351
4.665 	7.50161e-12 	0.0758351
4.675 	7.50161e-12 	0.0758351
4.685 	7.50161e-12 	0.0758351
4.695 	7.50161e-12 	0.0758351
4.705 	7.50161e-12 	0.0758351
4.715 	7.50161e-12 	0.0758351
4.725 	7.50161e-12 	0.0758351
4.735 	7.50161e-12 	0.0758351
4.745 	7.50161e-12 	0.0758351
4.755 	7.50161e-12 	0.0758351
4.765 	7.50161e-12 	0.0758351
4.775 	7.50161e-12 	0.0758351
4.785 	7.50161e-12 	0.0758351
4.795 	7.50161e-12 	0.0758351
4.805 	7.50161e-12 	0.0758351
4.815 	7.50161e-12 	0.0758351
4.825 	7.50161e-12 	0.0758351
4.835 	7.50161e-12 	0.0758351
4.845 	7.50161e-12 	0.0758351
4.855 	7.50161e-12 	0.0758351
4.865 	7.50161e-12 	0.0758351
4.875 	7.50161e-12 	0.0758351
4.885 	7.50161e-12 	0.0758351
4.895 	7.50161e-12 	0.0758351
4.905 	7.50161e-12 	0.0758351
4.915 	7.50161e-12 	0.0758351
4.925 	7.50161e-12 	0.0758351
4.935 	7.50161e-12 	0.0758351
4.945 	7.50161e-12 	0.0758351
4.955 	7.50161e-12 	0.0758351
4.965 	7.50161e-12 	0.0758351
4.975 	7.50161e-12 	0.0758351
4.985 	7.50161e-12 	0.0758351
4.995 	7.50161e-12 	0.0758351
5.005 	7.50161e-12 	0.0758351
5.015 	7.50161e-12 	0.0758351
5.025 	7.50161e-12 	0.0758351
5.035 	7.50161e-12 	0.0758351
5.045 	7.50161e-12 	0.0758351
5.055 	7.50161e-12 	0.0758351
5.065 	7.50161e-12 	0.0758351
5.075 	7.50161e-12 	0.0758351
5.085 	7.50161e-12 	0.0758351
5.095 	7.50161e-12 	0.0758351
5.105 	7.50161e-12 	0.0758351
5.115 	7.50161e-12 	0.0758351
5.125 	7.50161e-12 	0.0758351
5.135 	7.50161e-12 	0.0758351
5.145 	7.50161e-12 	0.0758351
5.155 	7.50161e-12 	0.0758351
5.165 	7.50161e-12 	0.0758351
5.175 	7.50161e-12 	0.0758351
5.185 	7.50161e-12 	0.0758351
5.195 	7.50161e-12 	0.0758351
5.205 	7.50161e-12 	0.0758351
5.215 	7.50161e-12 	0.0758351
5.225 	7.50161e-12 	0.0758351
5.235 	7.50161e-12 	0.0758351
5.245 	7.50161e-12 	0.0758351
5.255 	7.50161e-12 	0.0758351
5.265 	7.50161e-12 	0.0758351
5.275 	7.50161e-12 	0.0758351
5.285 	7.50161e-12 	0.0758351
5.295 	7.50161e-12 	0.0758351
5.305 	7.50161e-12 	0.0758351
5.315 	7.50161e-12 	0.0758351
5.325 	7.50161e-12 	0.0758351
5.335 	7.50161e-12 	0.0758351
5.345 	7.50161e-12 	0.0758351
5.355 	7.50161e-12 	0.0758351
5.365 	7.50161e-12 	0.0758351
5.375 	7.50161e-12 	0.0758351
5.385 	7.50161e-12 	0.0758351
5.395 	7.50161e-12 	0.0758351
5.405 	7.50161e-12 	0.0758351
5.415 	7.50161e-12 	0.0758351
5.425 	7.50161e-12 	0.0758351
5.435 	7.50161e-12 	0.0758351
5.445 	7.50161e-12 	0.0758351
5.455 	7.50161e-12 	0.0758351
5.465 	7.50161e-12 	0.0758351
5.475 	7.50161e-12 	0.0758351
5.485 	7.50161e-12 	0.0758351
5.495 	7.50161e-12 	0.0758351
5.505 	7.50161e-12 	0.0758351
5.515 	7.50161e-12 	0.0758351
5.525 	7.50161e-12 	0.0758351
5.535 	7.50161e-12 	0.0758351
5.545 	7.50161e-12 	0.0758351
5.555 	7.50161e-12 	0.0758351
5.565 	7.50161e-12 	0.0758351
5.575 	7.50161e-12 	0.0758351
5.585 	7.50161e-12 	0.0758351
5.595 	7.50161e-12 	0.0758351
5.605 	7.50161e-12 	0.0758351
5.615 	7.50161e-12 	0.0758351
5.625 	7.50161e-12 	0.0758351
5.635 	7.50161e-12 	0.0758351
5.645 	7.50161e-12 	0.0758351
5.655 	7.50161e-12 	0.0758351
5.665 	7.50161e-12 	0.0758351
5.675 	7.50161e-12 	0.0758351
5.685 	7.50161e-12 	0.0758351
5.695 	7.50161e-12 	0.0758351
5.705 	7.50161e-12 	0.0758351
5.715 	7.50161e-12 	0.0758351
5.725 	7.50161e-12 	0.0758351
5.735 	7.50161e-12 	0.0758351
5.745 	7.50161e-12 	0.0758351
5.755 	7.50161e-12 	0.0758351
5.765 	7.50161e-12 	0.0758351
5.775 	7.50161e-12 	0.0758351
5.785 	7.50161e-12 	0.0758351
5.795 	7.50161e-12 	0.0758351
5.805 	7.50161e-12 	0.0758351
5.815 	7.50161e-12 	0.0758351
5.825 	7.50161e-12 	0.0758351
5.835 	7.50161e-12 	0.0758351
5.845 	7.50161e-12 	0.0758351
5.855 	7.50161e-12 	0.0758351
5.865 	7.50161e-12 	0.0758351
5.875 	7.50161e-12 	0.0758351
5.885 	7.50161e-12 	0.0758351
5.895 	7.50161e-12 	0.0758351
5.905 	7.50161e-12 	0.0758351
5.915 	7.50161e-12 	0.0758351
5.925 	7.50161e-12 	0.0758351
5.935 	7.50161e-12 	0.0758351
5.945 	7.50161e-12 	0.0758351
5.955 	7.50161e-12 	0.0758351
5.965 	7.50161e-12 	0.0758351
5.975 	7.50161e-12 	0.0758351
5.985 	7.50161e-12 	0.0758351
5.995 	7.50161e-12 	0.0758351
6.005 	7.50161e-12 	0.0758351
6.015 	7.50161e-12 	0.0758351
6.025 	7.50161e-12 	0.0758351
6.035 	7.50161e-12 	0.0758351
6.045 	7.50161e-12 	0.0758351
6.055 	7.50161e-12 	0.0758351
6.065 	7.50161e-12 	0.0758351
6.075 	7.50161e-12 	0.0758351
6.085 	7.50161e-12 	0.0758351
6.095 	7.50161e-12 	0.0758351
6.105 	7.50161e-12 	0.0758351
6.115 	7.50161e-12 	0.0758351
6.125 	7.50161e-12 	0.0758351
6.135 	7.50161e-12 	0.0758351
6.145 	7.50161e-12 	0.0758351
6.155 	7.50161e-12 	0.0758351
6.165 	7.50161e-12 	0.0758351
6.175 	7.50161e-12 	0.0758351
6.185 	7.50161e-12 	0.0758351
6.195 	7.50161e-12 	0.0758351
6.205 	7.50161e-12 	0.0758351
6.215 	7.50161e-12 	0.0758351
6.225 	7.50161e-12 	0.0758351
6.235 	7.50161e-12 	0.0758351
6.245 	7.50161e-12 	0.0758351
6.255 	7.50161e-12 	0.0758351
6.265 	7.50161e-12 	0.0758351
6.275 	7.50161e-12 	0.0758351
6.285 	7.50161e-12 	0.0758351
6.295 	7.50161e-12 	0.0758351
6.305 	7.50161e-12 	0.0758351
6.315 	7.50161e-12 	0.0758351
6.325 	7.50161e-12 	0.0758351
6.335 	7.50161e-12 	0.0758351
6.345 	7.50161e-12 	0.0758351
6.355 	7.50161e-12 	0.0758351
6.365 	7.50161e-12 	0.0758351
6.375 	7.50161e-12 	0.0758351
6.385 	7.50161e-12 	0.0758351
6.395 	7.50161e-12 	0.0758351
6.405 	7.50161e-12 	0.0758351
6.415 	7.50161e-12 	0.0758351
6.425 	7.50161e-12 	0.0758351
6.435 	7.50161e-12 	0.0758351
6.445 	7.50161e-12 	0.0758351
6.455 	7.50161e-12 	0.0758351
6.465 	7.50161e-12 	0.0758351
6.475 	7.50161e-12 	0.0758351
6.485 	7.50161e-12 	0.0758351
6.495 	7.50161e-12 	0.0758351
6.505 	7.50161e-12 	0.0758351
6.515 	7.50161e-12 	0.0758351
6.525 	7.50161e-12 	0.0758351
6.535 	7.50161e-12 	0.0758351
6.545 	7.50161e-12 	0.0758351
6.555 	7.50161e-12 	0.0758351
6.565 	7.50161e-12 	0.0758351
6.575 	7.50161e-12 	0.0758351
6.585 	7.50161e-12 	0.0758351
6.595 	7.50161e-12 	0.0758351
6.605 	7.50161e-12 	0.0758351
6.615 	7.50161e-12 	0.0758351
6.625 	7.50161e-12 	0.0758351
6.635 	7.50161e-12 	0.0758351
6.645 	7.50161e-12 	0.0758351
6.655 	7.50161e-12 	0.0758351
6.665 	7.50161e-12 	0.0758351
6.675 	7.50161e-12 	0.0758351
6.685 	7.50161e-12 	0.0758351
6.695 	7.50161e-12 	0.0758351
6.705 	7.50161e-12 	0.0758351
6.715 	7.50161e-12 	0.0758351
6.725 	7.50161e-12 	0.0758351
6.735 	7.50161e-12 	0.0758351
6.745 	7.50161e-12 	0.0758351
6.755 	7.50161e-12 	0.0758351
6.765 	7.50161e-12 	0.0758351
6.775 	7.50161e-12 	0.0758351
6.785 	7.50161e-12 	0.0758351
6.795 	7.50161e-12 	0.0758351
6.805 	7.50161e-12 	0.0758351
6.815 	7.50161e-12 	0.0758351
6.825 	7.50161e-12 	0.0758351
6.835 	7.50161e-12 	0.0758351
6.845 	7.50161e-12 	0.0758351
6.855 	7.50161e-12 	0.0758351
6.865 	7.50161e-12 	0.0758351
6.875 	7.50161e-12 	0.0758351
6.885 	7.50161e-12 	0.0758351
6.895 	7.50161e-12 	0.0758351
6.905 	7.50161e-12 	0.0758351
6.915 	7.50161e-12 	0.0758351
6.925 	7.50161e-12 	0.0758351
6.935 	7.50161e-12 	0.0758351
6.945 	7.50161e-12 	0.0758351
6.955 	7.50161e-12 	0.0758351
6.965 	7.50161e-12 	0.0758351
6.975 	7.50161e-12 	0.0758351
6.985 	7.50161e-12 	0.0758351
6.995 	7.50161e-12 	0.0758351
7.005 	7.50161e-12 	0.0758351
7.015 	7.50161e-12 	0.0758351
7.025 	7.50161e-12 	0.0758351
7.035 	7.50161e-12 	0.0758351
7.045 	7.50161e-12 	0.0758351
7.055 	7.50161e-12 	0.0758351
7.065 	7.50161e-12 	0.0758351
7.075 	7.50161e-12 	0.0758351
7.085 	7.50161e-12 	0.0758351
7.095 	7.50161e-12 	0.0758351
7.105 	7.50161e-12 	0.0758351
7.115 	7.50161e-12 	0.0758351
7.125 	7.50161e-12 	0.0758351
7.135 	7.50161e-12 	0.0758351
7.145 	7.50161e-12 	0.0758351
7.155 	7.50161e-12 	0.0758351
7.165 	7.50161e-12 	0.0758351
7.175 	7.50161e-12 	0.0758351
7.185 	7.50161e-12 	0.0758351
7.195 	7.50161e-12 	0.0758351
7.205 	7.50161e-12 	0.0758351
7.215 	7.50161e-12 	0.0758351
7.225 	7.50161e-12 	0.0758351
7.235 	7.50161e-12 	0.0758351
7.245 	7.50161e-12 	0.0758351
7.255 	7.50161e-12 	0.0758351
7.265 	7.50161e-12 	0.0758351
7.275 	7.50161e-12 	0.0758351
7.285 	7.50161e-12 	0.0758351
7.295 	7.50161e-12 	0.0758351
7.305 	7.50161e-12 	0.0758351
7.315 	7.50161e-12 	0.0758351
7.325 	7.50161e-12 	0.0758351
7.335 	7.50161e-12 	0.0758351
7.345 	7.50161e-12 	0.0758351
7.355 	7.50161e-12 	0.0758351
7.365 	7.50161e-12 	0.0758351
7.375 	7.50161e-12 	0.0758351
7.385 	7.50161e-12 	0.0758351
7.395 	7.50161e-12 	0.0758351
7.405 	7.50161e-12 	0.0758351
7.415 	7.50161e-12 	0.0758351
7.425 	7.50161e-12 	0.0758351
7.435 	7.50161e-12 	0.0758351
7.445 	7.50161e-12 	0.0758351
7.455 	7.50161e-12 	0.0758351
7.465 	7.50161e-12 	0.0758351
7.475 	7.50161e-12 	0.0758351
7.485 	7.50161e-12 	0.0758351
7.495 	7.50161e-12 	0.0758351
7.505 	7.50161e-12 	0.0758351
7.515 	7.50161e-12 	0.0758351
7.525 	7.50161e-12 	0.0758351
7.535 	7.50161e-12 	0.0758351
7.545 	7.50161e-12 	0.0758351
7.555 	7.50161e-12 	0.0758351
7.565 	7.50161e-12 	0.0758351
7.575 	7.50161e-12 	0.0758351
7.585 	7.50161e-12 	0.0758351
7.595 	7.50161e-12 	0.0758351
7.605 	7.50161e-12 	0.0758351
7.615 	7.50161e-12 	0.0758351
7.625 	7.50161e-12 	0.0758351
7.635 	7.50161e-12 	0.0758351
7.645 	7.50161e-12 	0.0758351
7.655 	7.50161e-12 	0.0758351
7.665 	7.50161e-12 	0.0758351
7.675 	7.50161e-12 	0.0758351
7.685 	7.50161e-12 	0.0758351
7.695 	7.50161e-12 	0.0758351
7.705 	7.50161e-12 	0.0758351
7.715 	7.50161e-12 	0.0758351
7.725 	7.50161e-12 	0.0758351
7.735 	7.50161e-12 	0.0758351
7.745 	7.50161e-12 	0.0758351
7.755 	7.50161e-12 	0.0758351
7.765 	7.50161e-12 	0.0758351
7.775 	7.50161e-12 	0.0758351
7.785 	7.50161e-12 	0.0758351
7.795 	7.50161e-12 	0.0758351
7.805 	7.50161e-12 	0.0758351
7.815 	7.50161e-12 	0.0758351
7.825 	7.50161e-12 	0.0758351
7.835 	7.50161e-12 	0.0758351
7.845 	7.50161e-12 	0.0758351
7.855 	7.50161e-12 	0.0758351
7.865 	7.50161e-12 	0.0758351
7.875 	7.50161e-12 	0.0758351
7.885 	7.50161e-12 	0.0758351
7.895 	7.50161e-12 	0.0758351
7.905 	7.50161e-12 	0.0758351
7.915 	7.50161e-12 	0.0758351
7.925 	7.50161e-12 	0.0758351
7.935 	7.50161e-12 	0.0758351
7.945 	7.50161e-12 	0.0758351
7.955 	7.50161e-12 	0.0758351
7.965 	7.50161e-12 	0.0758351
7.975 	7.50161e-12 	0.0758351
7.985 	7.50161e-12 	0.0758351
7.995 	7.50161e-12 	0.0758351
8.005 	7.50161e-12 	0.0758351
8.015 	7.50161e-12 	0.0758351
8.025 	7.50161e-12 	0.0758351
8.035 	7.50161e-12 	0.0758351
8.045 	7.50161e-12 	0.0758351
8.055 	7.50161e-12 	0.0758351
8.065 	7.50161e-12 	0.0758351
8.075 	7.50161e-12 	0.0758351
8.085 	7.50161e-12 	0.0758351
8.095 	7.50161e-12 	0.0758351
8.105 	7.50161e-12 	0.0758351
8.115 	7.50161e-12 	0.0758351
8.125 	7.50161e-12 	0.0758351
8.135 	7.50161e-12 	0.0758351
8.145 	7.50161e-12 	0.0758351
8.155 	7.50161e-12 	0.0758351
8.165 	7.50161e-12 	0.0758351
8.175 	7.50161e-12 	0.0758351
8.185 	7.50161e-12 	0.0758351
8.195 	7.50161e-12 	0.0758351
8.205 	7.50161e-12 	0.0758351
8.215 	7.50161e-12 	0.0758351
8.225 	7.50161e-12 	0.0758351
8.235 	7.50161e-12 	0.0758351
8.245 	7.50161e-12 	0.0758351
8.255 	7.50161e-12 	0.0758351
8.265 	7.50161e-12 	0.0758351
8.275 	7.50161e-12 	0.0758351
8.285 	7.50161e-12 	0.0758351
8.295 	7.50161e-12 	0.0758351
8.305 	7.50161e-12 	0.0758351
8.315 	7.50161e-12 	0.0758351
8.325 	7.50161e-12 	0.0758351
8.335 	7.50161e-12 	0.0758351
8.345 	7.50161e-12 	0.0758351
8.355 	7.50161e-12 	0.0758351
8.365 	7.50161e-12 	0.0758351
8.375 	7.50161e-12 	0.0758351
8.385 	7.50161e-12 	0.0758351
8.395 	7.50161e-12 	0.0758351
8.405 	7.50161e-12 	0.0758351
8.415 	7.50161e-12 	0.0758351
8.425 	7.50161e-12 	0.0758351
8.435 	7.50161e-12 	0.0758351
8.445 	7.50161e-12 	0.0758351
8.455 	7.50161e-12 	0.0758351
8.465 	7.50161e-12 	0.0758351
8.475 	7.50161e-12 	0.0758351
8.485 	7.50161e-12 	0.0758351
8.495 	7.50161e-12 	0.0758351
8.505 	7.50161e-12 	0.0758351
8.515 	7.50161e-12 	0.0758351
8.525 	7.50161e-12 	0.0758351
8.535 	7.50161e-12 	0.0758351
8.545 	7.50161e-12 	0.0758351
8.555 	7.50161e-12 	0.0758351
8.565 	7.50161e-12 	0.0758351
8.575 	7.50161e-12 	0.0758351
8.585 	7.50161e-12 	0.0758351
8.595 	7.50161e-12 	0.0758351
8.605 	7.50161e-12 	0.0758351
8.615 	7.50161e-12 	0.0758351
8.625 	7.50161e-12 	0.0758351
8.635 	7.50161e-12 	0.0758351
8.645 	7.50161e-12 	0.0758351
8.655 	7.50161e-12 	0.0758351
8.665 	7.50161e-12 	0.0758351
8.675 	7.50161e-12 	0.0758351
8.685 	7.50161e-12 	0.0758351
8.695 	7.50161e-12 	0.0758351
8.705 	7.50161e-12 	0.0758351
8.715 	7.50161e-12 	0.0758351
8.725 	7.50161e-12 	0.0758351
8.735 	7.50161e-12 	0.0758351
8.745 	7.50161e-12 	0.0758351
8.755 	7.50161e-12 	0.0758351
8.765 	7.50161e-12 	0.0758351
8.775 	7.50161e-12 	0.0758351
8.785 	7.50161e-12 	0.0758351
8.795 	7.50161e-12 	0.0758351
8.805 	7.50161e-12 	0.0758351
8.815 	7.50161e-12 	0.0758351
8.825 	7.50161e-12 	0.0758351
8.835 	7.50161e-12 	0.0758351
8.845 	7.50161e-12 	0.0758351
8.855 	7.50161e-12 	0.0758351
8.865 	7.50161e-12 	0.0758351
8.875 	7.50161e-12 	0.0758351
8.885 	7.50161e-12 	0.0758351
8.895 	7.50161e-12 	0.0758351
8.905 	7.50161e-12 	0.0758351
8.915 	7.50161e-12 	0.0758351
8.925 	7.50161e-12 	0.0758351
8.935 	7.50161e-12 	0.0758351
8.945 	7.50161e-12 	0.0758351
8.955 	7.50161e-12 	0.0758351
8.965 	7.50161e-12 	0.0758351
8.975 	7.50161e-12 	0.0758351
8.985 	7.50161e-12 	0.0758351
8.995 	7.50161e-12 	0.0758351
9.005 	7.50161e-12 	0.0758351
9.015 	7.50161e-12 	0.0758351
9.025 	7.50161e-12 	0.0758351
9.035 	7.50161e-12 	0.0758351
9.045 	7.50161e-12 	0.0758351
9.055 	7.50161e-12 	0.0758351
9.065 	7.50161e-12 	0.0758351
9.075 	7.50161e-12 	0.0758351
9.085 	7.50161e-12 	0.0758351
9.095 	7.50161e-12 	0.0758351
9.105 	7.50161e-12 	0.0758351
9.115 	7.50161e-12 	0.0758351
9.125 	7.50161e-12 	0.0758351
9.135 	7.50161e-12 	0.0758351
9.145 	7.50161e-12 	0.0758351
9.155 	7.50161e-12 	0.0758351
9.165 	7.50161e-12 	0.0758351
9.175 	7.50161e-12 	0.0758351
9.185 	7.50161e-12 	0.0758351
9.195 	7.50161e-12 	0.0758351
9.205 	7.50161e-12 	0.0758351
9.215 	7.50161e-12 	0.0758351
9.225 	7.50161e-12 	0.0758351
9.235 	7.50161e-12 	0.0758351
9.245 	7.50161e-12 	0.0758351
9.255 	7.50161e-12 	0.0758351
9.265 	7.50161e-12 	0.0758351
9.275 	7.50161e-12 	0.0758351
9.285 	7.50161e-12 	0.0758351
9.295 	7.50161e-12 	0.0758351
9.305 	7.50161e-12 	0.0758351
9.315 	7.50161e-12 	0.0758351
9.325 	7.50161e-12 	0.0758351
9.335 	7.50161e-12 	0.0758351
9.345 	7.50161e-12 	0.0758351
9.355 	7.50161e-12 	0.0758351
9.365 	7.50161e-12 	0.0758351
9.375 	7.50161e-12 	0.0758351
9.385 	7.50161e-12 	0.0758351
9.395 	7.50161e-12 	0.0758351
9.405 	7.50161e-12 	0.0758351
9.415 	7.50161e-12 	0.0758351
9.425 	7.50161e-12 	0.0758351
9.435 	7.50161e-12 	0.0758351
9.445 	7.50161e-12 	0.0758351
9.455 	7.50161e-12 	0.0758351
9.465 	7.50161e-12 	0.0758351
9.475 	7.50161e-12 	0.0758351
9.485 	7.50161e-12 	0.0758351
9.495 	7.50161e-12 	0.0758351
9.505 	7.50161e-12 	0.0758351
9.515 	7.50161e-12 	0.0758351
9.525 	7.50161e-12 	0.0758351
9.535 	7.50161e-12 	0.0758351
9.545 	7.50161e-12 	0.0758351
9.555 	7.50161e-12 	0.0758351
9.565 	7.50161e-12 	0.0758351
9.575 	7.50161e-12 	0.0758351
9.585 	7.50161e-12 	0.0758351
9.595 	7.50161e-12 	0.0758351
9.605 	7.50161e-12 	0.0758351
9.615 	7.50161e-12 	0.0758351
9.625 	7.50161e-12 	0.0758351
9.635 	7.50161e-12 	0.0758351
9.645 	7.50161e-12 	0.0758351
9.655 	7.50161e-12 	0.0758351
9.665 	7.50161e-12 	0.0758351
9.675 	7.50161e-12 	0.0758351
9.685 	7.50161e-12 	0.0758351
9.695 	7.50161e-12 	0.0758351
9.705 	7.50161e-12 	0.0758351
9.715 	7.50161e-12 	0.0758351
9.725 	7.50161e-12 	0.0758351
9.735 	7.50161e-12 	0.0758351
9.745 	7.50161e-12 	0.0758351
9.755 	7.50161e-12 	0.0758351
9.765 	7.50161e-12 	0.0758351
9.775 	7.50161e-12 	0.0758351
9.785 	7.50161e-12 	0.0758351
9.795 	7.50161e-12 	0.0758351
9.805 	7.50161e-12 	0.0758351
9.815 	7.50161e-12 	0.0758351
9.825 	7.50161e-12 	0.0758351
9.835 	7.50161e-12 	0.0758351
9.845 	7.50161e-12 	0.0758351
9.855 	7.50161e-12 	0.0758351
9.865 	7.50161e-12 	0.0758351
9.875 	7.50161e-12 	0.0758351
9.885 	7.50161e-12 	0.0758351
9.895 	7.50161e-12 	0.0758351
9.905 	7.50161e-12 	0.0758351
9.915 	7.50161e-12 	0.0758351
9.925 	7.50161e-12 	0.0758351
9.935 	7.50161e-12 	0.0758351
9.945 	7.50161e-12 	0.0758351
9.955 	7.50161e-12 	0.0758351
9.965 	7.50161e-12 	0.0758351
9.975 	7.50161e-12 	0.0758351
9.985 	7.50161e-12 	0.0758351
9.995 	7.50161e-12 	0.0758351
10.005 	7.50161e-12 	0.0758351
10.015 	7.50161e-12 	0.0758351
10.025 	7.50161e-12 	0.0758351