/*--------------------------------*- C++ -*----------------------------------*\
| =========                 |                                                 |
| \\      /  F ield         | OpenFOAM: The Open Source CFD Toolbox           |
|  \\    /   O peration     | Version:  2212                                  |
|   \\  /    A nd           | Website:  www.openfoam.com                      |
|    \\/     M anipulation  |                                                 |
\*---------------------------------------------------------------------------*/
FoamFile
{
    version     2.0;
    format      ascii;
    arch        "LSB;label=32;scalar=64";
    class       volScalarField;
    location    "0.007";
    object      G;
}
// * * * * * * * * * * * * * * * * * * * * * * * * * * * * * * * * * * * * * //

dimensions      [1 0 -3 0 0 0 0];

internalField   nonuniform List<scalar> 
100
(
1794.45
1791.04
1787.28
1783.15
1778.61
1773.63
1768.18
1762.21
1755.67
1748.53
1740.72
1732.19
1722.88
1712.73
1701.65
1689.6
1676.49
1662.27
1646.88
1630.27
1612.42
1593.32
1572.98
1551.45
1528.8
1505.12
1480.53
1455.18
1429.21
1402.81
1376.16
1349.46
1322.89
1296.68
1271.02
1246.12
1222.18
1199.42
1178.03
1158.23
1140.22
1124.21
1110.41
1099.03
1090.28
1084.38
1081.57
1082.07
1086.12
1093.97
1105.87
1122.09
1142.91
1168.6
1199.45
1235.75
1277.82
1325.98
1380.58
1441.98
1510.59
1586.82
1671.07
1763.76
1865.23
1975.74
2095.4
2224.1
2361.43
2506.53
2658.04
2813.99
2971.8
3128.32
3280.01
3423.21
3554.39
3670.43
3768.76
3847.41
3904.97
3940.44
3953.15
3942.59
3908.34
3850.14
3768.45
3665.58
3547.21
3422.07
3298.8
3182.6
3075.26
2976.83
2886.85
2804.7
2729.79
2661.58
2599.55
2543.23
)
;

boundaryField
{
    sides
    {
        type            myMarshakRadiation;
        refValue        nonuniform List<scalar> 2(1837.4 1837.21);
        refGradient     uniform 0;
        valueFraction   nonuniform List<scalar> 2(0.0361446 0.0361446);
        source          uniform 0;
        value           nonuniform List<scalar> 2(2517.72 1796);
    }
    empty
    {
        type            empty;
    }
}


// ************************************************************************* //
