/*--------------------------------*- C++ -*----------------------------------*\
| =========                 |                                                 |
| \\      /  F ield         | OpenFOAM: The Open Source CFD Toolbox           |
|  \\    /   O peration     | Version:  2212                                  |
|   \\  /    A nd           | Website:  www.openfoam.com                      |
|    \\/     M anipulation  |                                                 |
\*---------------------------------------------------------------------------*/
FoamFile
{
    version     2.0;
    format      ascii;
    arch        "LSB;label=32;scalar=64";
    class       volScalarField;
    location    "0.007";
    object      p;
}
// * * * * * * * * * * * * * * * * * * * * * * * * * * * * * * * * * * * * * //

dimensions      [1 -1 -2 0 0 0 0];

internalField   nonuniform List<scalar> 
100
(
99185.7
99185.7
99185.6
99185.6
99185.4
99185.1
99184.5
99183
99180.2
99174.5
99163.7
99143.9
99109
99049.7
98952.6
98799.7
98568.3
98231.5
97760
97124.6
96299.1
95263.2
94005.1
92522.1
90820.8
88915.8
86828
84582.1
82205
79723.9
77164.9
74552.5
71908.7
69253.3
66604.2
63976.1
61381.2
58830.3
56332.7
53896.3
51527.9
49233.5
47018.6
44889.6
42850.8
40907.8
39067.3
37337.5
35728.1
34251.3
32921.7
31756.7
30771
29976
29372.4
28945.9
28667.6
28499.7
28405.1
28354.1
28326.5
28310.8
28301.2
28294.9
28290.8
28288.2
28286.7
28286.2
28286.4
28287.1
28288.3
28289.9
28291.8
28294
28296.5
28299.2
28302.1
28305.1
28308.3
28311.5
28314.5
28317.3
28319.7
28314.6
28256
27964.1
26983.6
24654.2
20760.4
16270.8
12780.6
10946.7
10242.5
10015.6
9947.38
9927.24
9921.31
9919.55
9919.02
9918.86
)
;

boundaryField
{
    sides
    {
        type            zeroGradient;
    }
    empty
    {
        type            empty;
    }
}


// ************************************************************************* //
