/*--------------------------------*- C++ -*----------------------------------*\
| =========                 |                                                 |
| \\      /  F ield         | OpenFOAM: The Open Source CFD Toolbox           |
|  \\    /   O peration     | Version:  2212                                  |
|   \\  /    A nd           | Website:  www.openfoam.com                      |
|    \\/     M anipulation  |                                                 |
\*---------------------------------------------------------------------------*/
FoamFile
{
    version     2.0;
    format      ascii;
    arch        "LSB;label=32;scalar=64";
    class       volScalarField;
    location    "0.007";
    object      rho;
}
// * * * * * * * * * * * * * * * * * * * * * * * * * * * * * * * * * * * * * //

dimensions      [1 -3 0 0 0 0 0];

internalField   nonuniform List<scalar> 
100
(
1.16102
1.16102
1.16102
1.16102
1.16102
1.16102
1.16101
1.161
1.16097
1.16093
1.16084
1.16067
1.16038
1.15988
1.15907
1.15779
1.15585
1.15303
1.14906
1.14371
1.13674
1.12797
1.11727
1.10459
1.08997
1.0735
1.05532
1.03561
1.01457
0.992417
0.96935
0.945566
0.921244
0.896548
0.871633
0.846626
0.82164
0.796775
0.772125
0.74777
0.723786
0.700245
0.677214
0.654776
0.632994
0.611949
0.591738
0.572477
0.554305
0.537394
0.521947
0.508202
0.496367
0.486605
0.478941
0.473204
0.469015
0.465857
0.46316
0.460371
0.456957
0.452392
0.446151
0.437766
0.42691
0.413501
0.397765
0.380239
0.361674
0.342926
0.32481
0.308009
0.293006
0.280081
0.269319
0.260655
0.25391
0.248832
0.245139
0.242547
0.240791
0.239644
0.23892
0.238434
0.23781
0.235894
0.229889
0.21565
0.191357
0.162145
0.137961
0.124315
0.118758
0.116906
0.11634
0.116172
0.116123
0.116108
0.116104
0.116103
)
;

boundaryField
{
    sides
    {
        type            zeroGradient;
    }
    empty
    {
        type            empty;
    }
}


// ************************************************************************* //
