/*--------------------------------*- C++ -*----------------------------------*\
| =========                 |                                                 |
| \\      /  F ield         | OpenFOAM: The Open Source CFD Toolbox           |
|  \\    /   O peration     | Version:  2212                                  |
|   \\  /    A nd           | Website:  www.openfoam.com                      |
|    \\/     M anipulation  |                                                 |
\*---------------------------------------------------------------------------*/
FoamFile
{
    version     2.0;
    format      ascii;
    arch        "LSB;label=32;scalar=64";
    class       volScalarField;
    location    "0.007";
    object      rho;
}
// * * * * * * * * * * * * * * * * * * * * * * * * * * * * * * * * * * * * * //

dimensions      [1 -3 0 0 0 0 0];

internalField   nonuniform List<scalar> 
100
(
1.16102
1.16102
1.16102
1.16102
1.16102
1.16102
1.16101
1.16101
1.16099
1.16096
1.16089
1.16076
1.16052
1.1601
1.1594
1.15826
1.15649
1.15385
1.15009
1.14492
1.1381
1.12943
1.11875
1.10603
1.09129
1.07463
1.0562
1.03621
1.01487
0.992415
0.969055
0.945
0.920439
0.89554
0.870463
0.845337
0.820272
0.795371
0.770722
0.746405
0.722491
0.699047
0.676138
0.653844
0.63222
0.611346
0.591313
0.572231
0.554233
0.537481
0.522167
0.508515
0.496721
0.486938
0.479194
0.473338
0.469029
0.465786
0.463064
0.460318
0.45701
0.4526
0.446542
0.43834
0.427643
0.414343
0.398648
0.38109
0.362423
0.34352
0.325214
0.30821
0.293008
0.279906
0.268994
0.260214
0.253389
0.248266
0.244559
0.241981
0.240261
0.239171
0.238526
0.23815
0.237676
0.235945
0.230089
0.21584
0.19133
0.161859
0.137602
0.124065
0.118633
0.116852
0.116319
0.116164
0.11612
0.116107
0.116103
0.116102
)
;

boundaryField
{
    sides
    {
        type            zeroGradient;
    }
    empty
    {
        type            empty;
    }
}


// ************************************************************************* //
