/*--------------------------------*- C++ -*----------------------------------*\
| =========                 |                                                 |
| \\      /  F ield         | OpenFOAM: The Open Source CFD Toolbox           |
|  \\    /   O peration     | Version:  2212                                  |
|   \\  /    A nd           | Website:  www.openfoam.com                      |
|    \\/     M anipulation  |                                                 |
\*---------------------------------------------------------------------------*/
FoamFile
{
    version     2.0;
    format      ascii;
    arch        "LSB;label=32;scalar=64";
    class       volScalarField;
    location    "0.007";
    object      T;
}
// * * * * * * * * * * * * * * * * * * * * * * * * * * * * * * * * * * * * * //

dimensions      [0 0 0 1 0 0 0];

internalField   nonuniform List<scalar> 
100
(
300
300
300
300
300
299.999
299.999
299.998
299.995
299.99
299.98
299.963
299.932
299.879
299.793
299.657
299.452
299.153
298.733
298.165
297.425
296.491
295.349
293.991
292.417
290.633
288.649
286.481
284.144
281.658
279.039
276.305
273.473
270.556
267.571
264.528
261.44
258.317
255.169
252.006
248.836
245.671
242.52
239.395
236.309
233.277
230.318
227.454
224.717
222.144
219.781
217.686
215.914
214.52
213.54
212.977
212.808
213.001
213.544
214.475
215.903
218.014
221.065
225.358
231.203
238.874
248.558
260.31
274.025
289.408
305.989
323.138
340.143
356.279
370.922
383.61
394.107
402.402
408.669
413.197
416.332
418.419
419.756
420.554
420.793
419.803
415.559
404.482
383.325
353.843
325.995
309.467
302.945
300.877
300.264
300.084
300.031
300.015
300.01
300.008
)
;

boundaryField
{
    sides
    {
        type            zeroGradient;
    }
    empty
    {
        type            empty;
    }
}


// ************************************************************************* //
