/*--------------------------------*- C++ -*----------------------------------*\
| =========                 |                                                 |
| \\      /  F ield         | OpenFOAM: The Open Source CFD Toolbox           |
|  \\    /   O peration     | Version:  2212                                  |
|   \\  /    A nd           | Website:  www.openfoam.com                      |
|    \\/     M anipulation  |                                                 |
\*---------------------------------------------------------------------------*/
FoamFile
{
    version     2.0;
    format      ascii;
    arch        "LSB;label=32;scalar=64";
    class       volScalarField;
    location    "0.007";
    object      thermo:e;
}
// * * * * * * * * * * * * * * * * * * * * * * * * * * * * * * * * * * * * * //

dimensions      [0 2 -2 0 0 0 0];

internalField   nonuniform List<scalar> 
100
(
213576
213576
213576
213576
213576
213576
213575
213575
213573
213569
213563
213551
213529
213493
213433
213339
213196
212988
212697
212303
211789
211141
210348
209405
208311
207072
205694
204187
202563
200835
199014
197113
195142
193113
191035
188917
186766
184590
182397
180192
177982
175774
173575
171395
169240
167123
165055
163054
161141
159341
157689
156223
154983
154007
153321
152927
152809
152944
153324
153976
154975
156452
158587
161589
165674
171031
177788
185979
195526
206221
217732
229622
241396
252555
262670
271426
278666
284383
288700
291818
293977
295414
296334
296884
297048
296366
293445
285816
271230
250871
231601
220145
215620
214185
213759
213635
213598
213587
213583
213582
)
;

boundaryField
{
    sides
    {
        type            zeroGradient;
    }
    empty
    {
        type            empty;
    }
}


// ************************************************************************* //
