/*--------------------------------*- C++ -*----------------------------------*\
| =========                 |                                                 |
| \\      /  F ield         | OpenFOAM: The Open Source CFD Toolbox           |
|  \\    /   O peration     | Version:  2212                                  |
|   \\  /    A nd           | Website:  www.openfoam.com                      |
|    \\/     M anipulation  |                                                 |
\*---------------------------------------------------------------------------*/
FoamFile
{
    version     2.0;
    format      ascii;
    arch        "LSB;label=32;scalar=64";
    class       volVectorField;
    location    "0.007";
    object      U;
}
// * * * * * * * * * * * * * * * * * * * * * * * * * * * * * * * * * * * * * //

dimensions      [0 1 -1 0 0 0 0];

internalField   nonuniform List<vector> 
100
(
(3.6038e-05 0 0)
(6.45642e-05 0 0)
(0.000129742 0 0)
(0.000280789 0 0)
(0.000626602 0 0)
(0.00139973 0 0)
(0.0030788 0 0)
(0.00661187 0 0)
(0.0138039 0 0)
(0.0279519 0 0)
(0.054823 0 0)
(0.104057 0 0)
(0.191014 0 0)
(0.338954 0 0)
(0.581255 0 0)
(0.963141 0 0)
(1.54225 0 0)
(2.38739 0 0)
(3.5751 0 0)
(5.18424 0 0)
(7.28938 0 0)
(9.95419 0 0)
(13.2262 0 0)
(17.1338 0 0)
(21.6857 0 0)
(26.8727 0 0)
(32.6711 0 0)
(39.0463 0 0)
(45.9569 0 0)
(53.3579 0 0)
(61.2038 0 0)
(69.4499 0 0)
(78.0536 0 0)
(86.9748 0 0)
(96.1745 0 0)
(105.619 0 0)
(115.28 0 0)
(125.126 0 0)
(135.131 0 0)
(145.265 0 0)
(155.502 0 0)
(165.813 0 0)
(176.163 0 0)
(186.513 0 0)
(196.825 0 0)
(207.044 0 0)
(217.103 0 0)
(226.917 0 0)
(236.379 0 0)
(245.349 0 0)
(253.66 0 0)
(261.119 0 0)
(267.539 0 0)
(272.771 0 0)
(276.757 0 0)
(279.569 0 0)
(281.397 0 0)
(282.497 0 0)
(283.12 0 0)
(283.464 0 0)
(283.66 0 0)
(283.782 0 0)
(283.867 0 0)
(283.931 0 0)
(283.984 0 0)
(284.03 0 0)
(284.07 0 0)
(284.108 0 0)
(284.143 0 0)
(284.178 0 0)
(284.212 0 0)
(284.247 0 0)
(284.283 0 0)
(284.32 0 0)
(284.358 0 0)
(284.397 0 0)
(284.438 0 0)
(284.479 0 0)
(284.521 0 0)
(284.561 0 0)
(284.599 0 0)
(284.634 0 0)
(284.661 0 0)
(284.567 0 0)
(283.707 0 0)
(279.777 0 0)
(267.416 0 0)
(238.884 0 0)
(189.147 0 0)
(123.82 0 0)
(62.552 0 0)
(24.2769 0 0)
(7.91932 0 0)
(2.39861 0 0)
(0.711274 0 0)
(0.211212 0 0)
(0.0638689 0 0)
(0.0202649 0 0)
(0.00716609 0 0)
(0.0030603 0 0)
)
;

boundaryField
{
    sides
    {
        type            zeroGradient;
    }
    empty
    {
        type            empty;
    }
}


// ************************************************************************* //
