/*--------------------------------*- C++ -*----------------------------------*\
| =========                 |                                                 |
| \\      /  F ield         | OpenFOAM: The Open Source CFD Toolbox           |
|  \\    /   O peration     | Version:  2212                                  |
|   \\  /    A nd           | Website:  www.openfoam.com                      |
|    \\/     M anipulation  |                                                 |
\*---------------------------------------------------------------------------*/
FoamFile
{
    version     2.0;
    format      ascii;
    arch        "LSB;label=32;scalar=64";
    class       volScalarField;
    location    "0.003";
    object      p;
}
// * * * * * * * * * * * * * * * * * * * * * * * * * * * * * * * * * * * * * //

dimensions      [1 -1 -2 0 0 0 0];

internalField   nonuniform List<scalar> 
100
(
99999.3
99999.3
99999.3
99999.3
99999.3
99999.3
99999.3
99999.3
99999.3
99999.3
99999.3
99999.3
99999.3
99999.3
99999.3
99999.3
99999.3
99999.3
99999.3
99999.3
99999.3
99999.3
99999.3
99999.3
99999.2
99999.1
99998.5
99996.6
99991.1
99975.8
99936.8
99845.8
99650.5
99266.5
98575.4
97435.9
95710.6
93300.1
90170.3
86361.8
81978
77161.7
72069.3
66851.5
61642.3
56554.9
51683.1
47105.8
42893.4
39115.6
35849.1
33179.4
31182.4
29872.3
29144
28809.5
28672.8
28621
28601.3
28591.8
28583.2
28563.7
28480
28123.4
26974.4
24327.6
20098.3
15532.5
12284.5
10746.6
10212.8
10056.5
10014.3
10003.4
10000.7
10000.1
9999.97
9999.94
9999.93
9999.93
9999.93
9999.93
9999.93
9999.93
9999.93
9999.93
9999.93
9999.93
9999.93
9999.93
9999.93
9999.93
9999.93
9999.93
9999.93
9999.93
9999.93
9999.93
9999.93
9999.93
)
;

boundaryField
{
    sides
    {
        type            zeroGradient;
    }
    empty
    {
        type            empty;
    }
}


// ************************************************************************* //
