/*--------------------------------*- C++ -*----------------------------------*\
| =========                 |                                                 |
| \\      /  F ield         | OpenFOAM: The Open Source CFD Toolbox           |
|  \\    /   O peration     | Version:  2312                                  |
|   \\  /    A nd           | Website:  www.openfoam.com                      |
|    \\/     M anipulation  |                                                 |
\*---------------------------------------------------------------------------*/
FoamFile
{
    version     2.0;
    format      ascii;
    arch        "LSB;label=32;scalar=64";
    class       volScalarField;
    location    "0.003";
    object      p;
}
// * * * * * * * * * * * * * * * * * * * * * * * * * * * * * * * * * * * * * //

dimensions      [1 -1 -2 0 0 0 0];

internalField   nonuniform List<scalar> 
100
(
413711
413711
413711
413711
413711
413711
413711
413710
413707
413701
413688
413662
413611
413513
413335
413024
412507
411681
410420
408578
406001
402544
398087
392550
385907
378179
369435
359782
349349
338276
326707
314781
302624
290353
278068
265857
253795
241946
230365
219097
208185
197664
187568
177933
168794
160191
152173
144797
138131
132252
127239
123154
120015
117773
116298
115412
114926
114682
114570
114528
114520
114531
114552
114578
114607
114639
114671
114705
114739
114774
114809
114846
114885
114925
114968
115013
115060
115110
115162
115207
115201
114946
113810
110288
102084
87927.5
70468.1
55611.3
46949.9
43266.3
41973.8
41557.6
41428.1
41388.4
41376.3
41372.7
41371.6
41371.3
41371.2
41371.2
)
;

boundaryField
{
    sides
    {
        type            zeroGradient;
    }
    empty
    {
        type            empty;
    }
}


// ************************************************************************* //
