/*--------------------------------*- C++ -*----------------------------------*\
| =========                 |                                                 |
| \\      /  F ield         | OpenFOAM: The Open Source CFD Toolbox           |
|  \\    /   O peration     | Version:  2312                                  |
|   \\  /    A nd           | Website:  www.openfoam.com                      |
|    \\/     M anipulation  |                                                 |
\*---------------------------------------------------------------------------*/
FoamFile
{
    version     2.0;
    format      ascii;
    arch        "LSB;label=32;scalar=64";
    class       volScalarField;
    location    "0.003";
    object      rho;
}
// * * * * * * * * * * * * * * * * * * * * * * * * * * * * * * * * * * * * * //

dimensions      [1 -3 0 0 0 0 0];

internalField   nonuniform List<scalar> 
100
(
1.16102
1.16102
1.16102
1.16102
1.16102
1.16102
1.16102
1.16102
1.16101
1.161
1.16098
1.16094
1.16085
1.16069
1.16039
1.15986
1.15899
1.1576
1.15546
1.15234
1.14797
1.14207
1.13443
1.12488
1.11335
1.09981
1.08434
1.06708
1.04819
1.02787
1.00634
0.983807
0.960466
0.936503
0.912088
0.887373
0.862494
0.837576
0.812729
0.788058
0.763661
0.739635
0.716078
0.693097
0.670811
0.64936
0.628908
0.609656
0.591839
0.575724
0.56158
0.549618
0.539902
0.532249
0.526175
0.520927
0.515578
0.509133
0.500602
0.489109
0.474028
0.455147
0.432775
0.40773
0.381189
0.354467
0.328786
0.305121
0.284125
0.26613
0.251197
0.239183
0.229813
0.222734
0.217561
0.213916
0.211448
0.209851
0.208871
0.208302
0.207945
0.207486
0.206168
0.202304
0.193261
0.177218
0.156357
0.137141
0.124857
0.119195
0.117105
0.116415
0.116198
0.116131
0.116111
0.116105
0.116103
0.116102
0.116102
0.116102
)
;

boundaryField
{
    sides
    {
        type            zeroGradient;
    }
    empty
    {
        type            empty;
    }
}


// ************************************************************************* //
