/*--------------------------------*- C++ -*----------------------------------*\
| =========                 |                                                 |
| \\      /  F ield         | OpenFOAM: The Open Source CFD Toolbox           |
|  \\    /   O peration     | Version:  2312                                  |
|   \\  /    A nd           | Website:  www.openfoam.com                      |
|    \\/     M anipulation  |                                                 |
\*---------------------------------------------------------------------------*/
FoamFile
{
    version     2.0;
    format      ascii;
    arch        "LSB;label=32;scalar=64";
    class       volScalarField;
    location    "0.003";
    object      T;
}
// * * * * * * * * * * * * * * * * * * * * * * * * * * * * * * * * * * * * * //

dimensions      [0 0 0 1 0 0 0];

internalField   nonuniform List<scalar> 
100
(
300
300
300
300
300
300
300
299.999
299.999
299.997
299.993
299.986
299.971
299.942
299.891
299.801
299.651
299.411
299.044
298.508
297.757
296.746
295.436
293.8
291.821
289.497
286.838
283.863
280.598
277.074
273.323
269.378
265.268
261.024
256.672
252.235
247.737
243.197
238.635
234.068
229.515
224.995
220.528
216.135
211.845
207.69
203.711
199.957
196.495
193.398
190.754
188.648
187.148
186.292
186.083
186.525
187.666
189.638
192.682
197.137
203.396
211.853
222.845
236.587
253.125
272.282
293.633
316.499
339.988
363.088
384.793
404.25
420.873
434.403
444.895
452.652
458.124
461.811
464.187
465.641
466.413
466.412
464.752
458.974
444.711
417.715
379.437
341.396
316.582
305.601
301.764
300.543
300.165
300.05
300.015
300.004
300.001
300
300
300
)
;

boundaryField
{
    sides
    {
        type            zeroGradient;
    }
    empty
    {
        type            empty;
    }
}


// ************************************************************************* //
