/*--------------------------------*- C++ -*----------------------------------*\
| =========                 |                                                 |
| \\      /  F ield         | OpenFOAM: The Open Source CFD Toolbox           |
|  \\    /   O peration     | Version:  2312                                  |
|   \\  /    A nd           | Website:  www.openfoam.com                      |
|    \\/     M anipulation  |                                                 |
\*---------------------------------------------------------------------------*/
FoamFile
{
    version     2.0;
    format      ascii;
    arch        "LSB;label=32;scalar=64";
    class       volScalarField;
    location    "0.003";
    object      thermo:e;
}
// * * * * * * * * * * * * * * * * * * * * * * * * * * * * * * * * * * * * * //

dimensions      [0 2 -2 0 0 0 0];

internalField   nonuniform List<scalar> 
100
(
534450
534450
534450
534450
534450
534450
534450
534449
534448
534445
534438
534425
534398
534347
534255
534095
533827
533400
532747
531793
530454
528652
526319
523404
519879
515739
511001
505701
499885
493607
486925
479896
472576
465015
457261
449357
441343
433256
425128
416992
408882
400829
392870
385045
377403
370000
362910
356224
350055
344539
339828
336076
333404
331878
331507
332294
334327
337840
343264
351199
362349
377416
396998
421480
450942
485071
523108
563843
605689
646841
685509
720172
749786
773889
792581
806400
816148
822717
826949
829540
830915
830913
827956
817662
792253
744159
675966
608197
563991
544427
537592
535417
534745
534539
534477
534458
534452
534451
534450
534450
)
;

boundaryField
{
    sides
    {
        type            zeroGradient;
    }
    empty
    {
        type            empty;
    }
}


// ************************************************************************* //
