/*--------------------------------*- C++ -*----------------------------------*\
| =========                 |                                                 |
| \\      /  F ield         | OpenFOAM: The Open Source CFD Toolbox           |
|  \\    /   O peration     | Version:  2312                                  |
|   \\  /    A nd           | Website:  www.openfoam.com                      |
|    \\/     M anipulation  |                                                 |
\*---------------------------------------------------------------------------*/
FoamFile
{
    version     2.0;
    format      ascii;
    arch        "LSB;label=32;scalar=64";
    class       volVectorField;
    location    "0.003";
    object      U;
}
// * * * * * * * * * * * * * * * * * * * * * * * * * * * * * * * * * * * * * //

dimensions      [0 1 -1 0 0 0 0];

internalField   nonuniform List<vector> 
100
(
(1.72323e-06 0 0)
(5.30495e-06 0 0)
(1.57578e-05 0 0)
(4.51561e-05 0 0)
(0.000124812 0 0)
(0.000332679 0 0)
(0.000854908 0 0)
(0.00211751 0 0)
(0.00505386 0 0)
(0.0116193 0 0)
(0.0257249 0 0)
(0.0548277 0 0)
(0.112454 0 0)
(0.221887 0 0)
(0.421073 0 0)
(0.768357 0 0)
(1.34811 0 0)
(2.27459 0 0)
(3.69211 0 0)
(5.7698 0 0)
(8.69039 0 0)
(12.6344 0 0)
(17.7628 0 0)
(24.2009 0 0)
(32.0291 0 0)
(41.2787 0 0)
(51.935 0 0)
(63.9456 0 0)
(77.2294 0 0)
(91.6877 0 0)
(107.213 0 0)
(123.694 0 0)
(141.026 0 0)
(159.104 0 0)
(177.835 0 0)
(197.132 0 0)
(216.911 0 0)
(237.097 0 0)
(257.617 0 0)
(278.396 0 0)
(299.361 0 0)
(320.429 0 0)
(341.508 0 0)
(362.49 0 0)
(383.24 0 0)
(403.589 0 0)
(423.325 0 0)
(442.175 0 0)
(459.803 0 0)
(475.815 0 0)
(489.796 0 0)
(501.382 0 0)
(510.372 0 0)
(516.826 0 0)
(521.083 0 0)
(523.664 0 0)
(525.118 0 0)
(525.9 0 0)
(526.321 0 0)
(526.559 0 0)
(526.71 0 0)
(526.821 0 0)
(526.915 0 0)
(527.003 0 0)
(527.093 0 0)
(527.188 0 0)
(527.29 0 0)
(527.402 0 0)
(527.525 0 0)
(527.659 0 0)
(527.806 0 0)
(527.966 0 0)
(528.139 0 0)
(528.328 0 0)
(528.531 0 0)
(528.749 0 0)
(528.982 0 0)
(529.229 0 0)
(529.485 0 0)
(529.696 0 0)
(529.572 0 0)
(527.921 0 0)
(521.038 0 0)
(500.436 0 0)
(452.968 0 0)
(368.146 0 0)
(252.37 0 0)
(137.176 0 0)
(58.2798 0 0)
(20.6612 0 0)
(6.68039 0 0)
(2.079 0 0)
(0.635979 0 0)
(0.192383 0 0)
(0.0575822 0 0)
(0.0170335 0 0)
(0.00497121 0 0)
(0.00142875 0 0)
(0.000403638 0 0)
(0.000111894 0 0)
)
;

boundaryField
{
    sides
    {
        type            zeroGradient;
    }
    empty
    {
        type            empty;
    }
}


// ************************************************************************* //
