/*--------------------------------*- C++ -*----------------------------------*\
| =========                 |                                                 |
| \\      /  F ield         | OpenFOAM: The Open Source CFD Toolbox           |
|  \\    /   O peration     | Version:  2212                                  |
|   \\  /    A nd           | Website:  www.openfoam.com                      |
|    \\/     M anipulation  |                                                 |
\*---------------------------------------------------------------------------*/
FoamFile
{
    version     2.0;
    format      ascii;
    arch        "LSB;label=32;scalar=64";
    class       volVectorField;
    location    "0.003";
    object      U;
}
// * * * * * * * * * * * * * * * * * * * * * * * * * * * * * * * * * * * * * //

dimensions      [0 1 -1 0 0 0 0];

internalField   nonuniform List<vector> 
100
(
(-3.30595e-13 0 0)
(-2.90054e-13 0 0)
(-2.79279e-13 0 0)
(-2.48261e-13 0 0)
(-1.50251e-13 0 0)
(-4.72413e-14 0 0)
(-4.77923e-14 0 0)
(-5.00668e-14 0 0)
(5.78243e-14 0 0)
(1.00442e-13 0 0)
(6.5228e-14 0 0)
(1.00699e-13 0 0)
(1.83558e-13 0 0)
(5.33281e-13 0 0)
(3.46837e-12 0 0)
(2.74071e-11 0 0)
(2.04976e-10 0 0)
(1.42661e-09 0 0)
(9.21649e-09 0 0)
(5.5277e-08 0 0)
(3.07942e-07 0 0)
(1.59405e-06 0 0)
(7.66925e-06 0 0)
(3.42974e-05 0 0)
(0.000142564 0 0)
(0.000550692 0 0)
(0.00197612 0 0)
(0.00658418 0 0)
(0.0203563 0 0)
(0.0583537 0 0)
(0.154972 0 0)
(0.380994 0 0)
(0.866661 0 0)
(1.82426 0 0)
(3.55699 0 0)
(6.43951 0 0)
(10.8655 0 0)
(17.176 0 0)
(25.5972 0 0)
(36.2101 0 0)
(48.9584 0 0)
(63.6827 0 0)
(80.1609 0 0)
(98.1413 0 0)
(117.361 0 0)
(137.549 0 0)
(158.414 0 0)
(179.617 0 0)
(200.719 0 0)
(221.119 0 0)
(239.975 0 0)
(256.206 0 0)
(268.742 0 0)
(277.089 0 0)
(281.76 0 0)
(283.987 0 0)
(284.983 0 0)
(285.443 0 0)
(285.685 0 0)
(285.829 0 0)
(285.893 0 0)
(285.758 0 0)
(284.705 0 0)
(280.105 0 0)
(265.851 0 0)
(233.517 0 0)
(178.744 0 0)
(110.188 0 0)
(50.9 0 0)
(17.8062 0 0)
(5.21837 0 0)
(1.39888 0 0)
(0.355678 0 0)
(0.0864921 0 0)
(0.0200992 0 0)
(0.00444953 0 0)
(0.000935255 0 0)
(0.000186073 0 0)
(3.49452e-05 0 0)
(6.18006e-06 0 0)
(1.02698e-06 0 0)
(1.60043e-07 0 0)
(2.33461e-08 0 0)
(3.18212e-09 0 0)
(4.04568e-10 0 0)
(4.79539e-11 0 0)
(5.30943e-12 0 0)
(5.52956e-13 0 0)
(8.85231e-14 0 0)
(8.11852e-14 0 0)
(7.34601e-14 0 0)
(4.0437e-14 0 0)
(-1.52811e-14 0 0)
(1.2572e-14 0 0)
(5.02157e-14 0 0)
(1.00718e-13 0 0)
(5.94994e-14 0 0)
(2.35225e-14 0 0)
(-8.30438e-14 0 0)
(-1.09912e-13 0 0)
)
;

boundaryField
{
    sides
    {
        type            zeroGradient;
    }
    empty
    {
        type            empty;
    }
}


// ************************************************************************* //
