/*--------------------------------*- C++ -*----------------------------------*\
| =========                 |                                                 |
| \\      /  F ield         | OpenFOAM: The Open Source CFD Toolbox           |
|  \\    /   O peration     | Version:  2312                                  |
|   \\  /    A nd           | Website:  www.openfoam.com                      |
|    \\/     M anipulation  |                                                 |
\*---------------------------------------------------------------------------*/
FoamFile
{
    version     2.0;
    format      ascii;
    arch        "LSB;label=32;scalar=64";
    class       volVectorField;
    location    "0.003";
    object      U;
}
// * * * * * * * * * * * * * * * * * * * * * * * * * * * * * * * * * * * * * //

dimensions      [0 1 -1 0 0 0 0];

internalField   nonuniform List<vector> 
100
(
(-3.3608e-14 0 0)
(-1.42777e-14 0 0)
(6.30052e-14 0 0)
(1.04328e-13 0 0)
(1.2284e-13 0 0)
(8.85816e-14 0 0)
(4.00472e-14 0 0)
(4.19423e-14 0 0)
(-1.27497e-15 0 0)
(-3.86371e-14 0 0)
(-7.55426e-14 0 0)
(-2.63904e-14 0 0)
(-1.51495e-15 0 0)
(3.19758e-13 0 0)
(3.24623e-12 0 0)
(2.7025e-11 0 0)
(2.05481e-10 0 0)
(1.44466e-09 0 0)
(9.39985e-09 0 0)
(5.66573e-08 0 0)
(3.16643e-07 0 0)
(1.642e-06 0 0)
(7.90483e-06 0 0)
(3.53405e-05 0 0)
(0.000146752 0 0)
(0.000565996 0 0)
(0.00202712 0 0)
(0.00673934 0 0)
(0.0207873 0 0)
(0.0594472 0 0)
(0.157503 0 0)
(0.386341 0 0)
(0.876969 0 0)
(1.84242 0 0)
(3.58636 0 0)
(6.48337 0 0)
(10.9265 0 0)
(17.2562 0 0)
(25.6978 0 0)
(36.3321 0 0)
(49.1027 0 0)
(63.8501 0 0)
(80.3518 0 0)
(98.3553 0 0)
(117.597 0 0)
(137.804 0 0)
(158.685 0 0)
(179.899 0 0)
(201.011 0 0)
(221.419 0 0)
(240.286 0 0)
(256.533 0 0)
(269.093 0 0)
(277.462 0 0)
(282.145 0 0)
(284.37 0 0)
(285.358 0 0)
(285.806 0 0)
(286.029 0 0)
(286.148 0 0)
(286.182 0 0)
(286.004 0 0)
(284.9 0 0)
(280.296 0 0)
(266.228 0 0)
(234.391 0 0)
(180.311 0 0)
(112.165 0 0)
(52.509 0 0)
(18.6384 0 0)
(5.53406 0 0)
(1.50111 0 0)
(0.385912 0 0)
(0.0948033 0 0)
(0.0222265 0 0)
(0.00495592 0 0)
(0.00104718 0 0)
(0.000209006 0 0)
(3.92922e-05 0 0)
(6.94014e-06 0 0)
(1.14906e-06 0 0)
(1.77943e-07 0 0)
(2.57194e-08 0 0)
(3.46229e-09 0 0)
(4.33122e-10 0 0)
(5.0228e-11 0 0)
(5.36093e-12 0 0)
(5.22268e-13 0 0)
(5.72272e-15 0 0)
(-1.13718e-14 0 0)
(-2.65259e-14 0 0)
(-5.3055e-14 0 0)
(-1.25744e-14 0 0)
(2.57208e-14 0 0)
(5.0949e-14 0 0)
(1.79072e-14 0 0)
(4.24031e-14 0 0)
(1.16519e-14 0 0)
(6.0011e-14 0 0)
(8.11432e-14 0 0)
)
;

boundaryField
{
    sides
    {
        type            zeroGradient;
    }
    empty
    {
        type            empty;
    }
}


// ************************************************************************* //
