/*--------------------------------*- C++ -*----------------------------------*\
| =========                 |                                                 |
| \\      /  F ield         | OpenFOAM: The Open Source CFD Toolbox           |
|  \\    /   O peration     | Version:  2312                                  |
|   \\  /    A nd           | Website:  www.openfoam.com                      |
|    \\/     M anipulation  |                                                 |
\*---------------------------------------------------------------------------*/
FoamFile
{
    version     2.0;
    format      ascii;
    arch        "LSB;label=32;scalar=64";
    class       volScalarField;
    location    "0";
    object      T;
}
// * * * * * * * * * * * * * * * * * * * * * * * * * * * * * * * * * * * * * //

dimensions      [0 0 0 1 0 0 0];

internalField   nonuniform List<scalar> 
100
(
34843.2
34843.2
34843.2
34843.2
34843.2
34843.2
34843.2
34843.2
34843.2
34843.2
34843.2
34843.2
34843.2
34843.2
34843.2
34843.2
34843.2
34843.2
34843.2
34843.2
34843.2
34843.2
34843.2
34843.2
34843.2
34843.2
34843.2
34843.2
34843.2
34843.2
34843.2
34843.2
34843.2
34843.2
34843.2
34843.2
34843.2
34843.2
34843.2
34843.2
34843.2
34843.2
34843.2
34843.2
34843.2
34843.2
34843.2
34843.2
34843.2
34843.2
2.78746e+07
2.78746e+07
2.78746e+07
2.78746e+07
2.78746e+07
2.78746e+07
2.78746e+07
2.78746e+07
2.78746e+07
2.78746e+07
2.78746e+07
2.78746e+07
2.78746e+07
2.78746e+07
2.78746e+07
2.78746e+07
2.78746e+07
2.78746e+07
2.78746e+07
2.78746e+07
2.78746e+07
2.78746e+07
2.78746e+07
2.78746e+07
2.78746e+07
2.78746e+07
2.78746e+07
2.78746e+07
2.78746e+07
2.78746e+07
2.78746e+07
2.78746e+07
2.78746e+07
2.78746e+07
2.78746e+07
2.78746e+07
2.78746e+07
2.78746e+07
2.78746e+07
2.78746e+07
2.78746e+07
2.78746e+07
2.78746e+07
2.78746e+07
2.78746e+07
2.78746e+07
2.78746e+07
2.78746e+07
2.78746e+07
2.78746e+07
)
;

boundaryField
{
    sides
    {
        type            zeroGradient;
    }
    empty
    {
        type            empty;
    }
}


// ************************************************************************* //
