/*--------------------------------*- C++ -*----------------------------------*\
| =========                 |                                                 |
| \\      /  F ield         | OpenFOAM: The Open Source CFD Toolbox           |
|  \\    /   O peration     | Version:  2312                                  |
|   \\  /    A nd           | Website:  www.openfoam.com                      |
|    \\/     M anipulation  |                                                 |
\*---------------------------------------------------------------------------*/
FoamFile
{
    version     2.0;
    format      ascii;
    arch        "LSB;label=32;scalar=64";
    class       volScalarField;
    location    "7e-05";
    object      rho;
}
// * * * * * * * * * * * * * * * * * * * * * * * * * * * * * * * * * * * * * //

dimensions      [1 -3 0 0 0 0 0];

internalField   nonuniform List<scalar> 
500
(
0.000353548
0.000353583
0.000353646
0.000353746
0.000353892
0.000354092
0.000354355
0.000354691
0.000355109
0.000355617
0.000356226
0.000356946
0.000357785
0.000358756
0.000359866
0.000361129
0.000362555
0.000364155
0.000365942
0.000367929
0.000370129
0.000372558
0.000375229
0.00037816
0.000381368
0.000384871
0.000388691
0.000392848
0.000397367
0.000402272
0.000407594
0.000413361
0.000419609
0.000426373
0.000433695
0.000441621
0.000450199
0.000459487
0.000469546
0.000480445
0.000492263
0.000505087
0.000519016
0.000534162
0.00055065
0.000568626
0.000588255
0.000609725
0.000633265
0.000659012
0.000686831
0.000716515
0.000747954
0.000781237
0.000816475
0.000853785
0.0008933
0.000935163
0.000979526
0.00102655
0.00107642
0.00112932
0.00118545
0.00124502
0.00130827
0.00137544
0.0014468
0.00152262
0.00160322
0.00168892
0.00178005
0.001877
0.00198015
0.00208993
0.0022068
0.00233124
0.00246376
0.00260492
0.00275532
0.00291558
0.00308637
0.00326843
0.00346251
0.00366944
0.0038901
0.00412541
0.00437638
0.00464407
0.00492961
0.0052342
0.00555912
0.00590574
0.00627551
0.00666997
0.00709077
0.00753963
0.0080184
0.00852905
0.00907365
0.0096544
0.0102736
0.0109338
0.0116375
0.0123876
0.0131869
0.0140385
0.0149456
0.0159117
0.0169404
0.0180353
0.0192006
0.0204403
0.0217588
0.0231606
0.0246506
0.0262336
0.0279148
0.0296996
0.0315938
0.0336031
0.0357336
0.0379916
0.0403834
0.042916
0.0455962
0.0484311
0.0514284
0.0545956
0.0579414
0.0614742
0.0652024
0.069135
0.073281
0.0776495
0.0822502
0.0870938
0.092193
0.0975587
0.103202
0.109134
0.115366
0.121909
0.128779
0.135994
0.143567
0.151511
0.159837
0.168559
0.177703
0.187292
0.197339
0.207856
0.218856
0.230384
0.242464
0.255112
0.268334
0.282172
0.29668
0.311882
0.327769
0.344392
0.361839
0.380128
0.399226
0.419259
0.440296
0.462308
0.485345
0.509571
0.53498
0.56154
0.589492
0.618807
0.649545
0.681982
0.715841
0.751688
0.789036
0.828753
0.869953
0.913953
0.959359
1.0081
1.05827
1.11243
1.16795
1.22826
1.28976
1.35698
1.42516
1.50011
1.5758
1.65921
1.74335
1.83582
1.92961
2.03191
2.13678
2.25
2.36709
2.49232
2.62372
2.76331
2.91058
3.06611
3.2302
3.40336
3.58666
3.78387
4.0091
4.25887
4.4099
4.43762
4.18351
2.9611
1.46012
1.18518
1.16229
1.16106
1.161
1.161
1.161
1.161
1.161
1.161
1.161
1.161
1.161
1.161
1.161
1.161
1.161
1.161
1.161
1.161
1.161
1.161
1.161
1.161
1.161
1.161
1.161
1.161
1.161
1.161
1.161
1.161
1.161
1.161
1.161
1.161
1.161
1.161
1.161
1.161
1.161
1.161
1.161
1.161
1.161
1.161
1.161
1.161
1.161
1.161
1.161
1.161
1.161
1.161
1.161
1.161
1.161
1.161
1.161
1.161
1.161
1.161
1.161
1.161
1.161
1.161
1.161
1.161
1.161
1.161
1.161
1.161
1.161
1.161
1.161
1.161
1.161
1.161
1.161
1.161
1.161
1.161
1.161
1.161
1.161
1.161
1.161
1.161
1.161
1.161
1.161
1.161
1.161
1.161
1.161
1.161
1.161
1.161
1.161
1.161
1.161
1.161
1.161
1.161
1.161
1.161
1.161
1.161
1.161
1.161
1.161
1.161
1.161
1.161
1.161
1.161
1.161
1.161
1.161
1.161
1.161
1.161
1.161
1.161
1.161
1.161
1.161
1.161
1.161
1.161
1.161
1.161
1.161
1.161
1.161
1.161
1.161
1.161
1.161
1.161
1.161
1.161
1.161
1.161
1.161
1.161
1.161
1.161
1.161
1.161
1.161
1.161
1.161
1.161
1.161
1.161
1.161
1.161
1.161
1.161
1.161
1.161
1.161
1.161
1.161
1.161
1.161
1.161
1.161
1.161
1.161
1.161
1.161
1.161
1.161
1.161
1.161
1.161
1.161
1.161
1.161
1.161
1.161
1.161
1.161
1.161
1.161
1.161
1.161
1.161
1.161
1.161
1.161
1.161
1.161
1.161
1.161
1.161
1.161
1.161
1.161
1.161
1.161
1.161
1.161
1.161
1.161
1.161
1.161
1.161
1.161
1.161
1.161
1.161
1.161
1.161
1.161
1.161
1.161
1.161
1.161
1.161
1.161
1.161
1.161
1.161
1.161
1.161
1.161
1.161
1.161
1.161
1.161
1.161
1.161
1.161
1.161
1.161
1.161
1.161
1.161
1.161
1.161
1.161
1.161
1.161
1.161
1.161
1.161
1.161
1.161
1.161
1.161
1.161
1.161
1.161
1.161
1.161
1.161
1.161
1.161
1.161
1.161
1.161
1.161
1.161
1.161
1.161
1.161
1.161
1.161
1.161
1.161
1.161
1.161
1.161
1.161
1.161
1.161
1.161
1.161
1.161
1.161
1.161
)
;

boundaryField
{
    wedge0
    {
        type            wedge;
    }
    wedge1
    {
        type            wedge;
    }
    wedge2
    {
        type            wedge;
    }
    wedge3
    {
        type            wedge;
    }
    outlet
    {
        type            zeroGradient;
    }
    defaultFaces
    {
        type            empty;
    }
}


// ************************************************************************* //
