/*--------------------------------*- C++ -*----------------------------------*\
| =========                 |                                                 |
| \\      /  F ield         | OpenFOAM: The Open Source CFD Toolbox           |
|  \\    /   O peration     | Version:  2312                                  |
|   \\  /    A nd           | Website:  www.openfoam.com                      |
|    \\/     M anipulation  |                                                 |
\*---------------------------------------------------------------------------*/
FoamFile
{
    version     2.0;
    format      ascii;
    arch        "LSB;label=32;scalar=64";
    class       volScalarField;
    location    "7e-05";
    object      T;
}
// * * * * * * * * * * * * * * * * * * * * * * * * * * * * * * * * * * * * * //

dimensions      [0 0 0 1 0 0 0];

internalField   nonuniform List<scalar> 
500
(
5.42089e+06
5.42043e+06
5.4195e+06
5.41798e+06
5.41576e+06
5.41271e+06
5.40869e+06
5.40357e+06
5.39722e+06
5.38951e+06
5.38029e+06
5.36945e+06
5.35685e+06
5.34237e+06
5.32588e+06
5.30726e+06
5.2864e+06
5.26317e+06
5.23747e+06
5.20918e+06
5.17822e+06
5.14447e+06
5.10784e+06
5.06826e+06
5.02563e+06
4.97989e+06
4.93096e+06
4.87878e+06
4.82331e+06
4.76449e+06
4.70229e+06
4.63669e+06
4.56766e+06
4.4952e+06
4.41931e+06
4.34001e+06
4.25732e+06
4.17127e+06
4.08192e+06
3.98932e+06
3.89356e+06
3.79471e+06
3.69288e+06
3.58818e+06
3.48074e+06
3.37071e+06
3.25825e+06
3.14354e+06
3.02679e+06
2.90847e+06
2.79058e+06
2.67513e+06
2.56265e+06
2.45346e+06
2.34758e+06
2.245e+06
2.1457e+06
2.04966e+06
1.95684e+06
1.8672e+06
1.78071e+06
1.69731e+06
1.61696e+06
1.5396e+06
1.46518e+06
1.39363e+06
1.32491e+06
1.25894e+06
1.19566e+06
1.135e+06
1.0769e+06
1.02129e+06
968098
917255
868690
822333
778112
735957
695798
657565
621189
586600
553732
522518
492892
464790
438149
412907
389003
366380
344979
324745
305625
287564
270514
254424
239247
224938
211452
198748
186783
175521
164922
154952
145575
136760
128476
120691
113379
106512
100065
94012.5
88332.7
83003.3
78003.6
73313.9
68915.7
64791.5
60924.8
57299.8
53901.8
50716.8
47731.5
44933.5
42311
39853
37549.1
35389.5
33365.2
31467.6
29688.3
28019.7
26454.7
24986.5
23608.7
22315.6
21101.9
19962.4
18892.3
17886.9
16942
16053.5
15218.2
14432.8
13693.9
12998.6
12343.7
11726.7
11145.7
10598.3
10082.3
9595.43
9135.7
8701.99
8292.69
7906
7540.11
7194.04
6867.1
6557.79
6264.48
5986.46
5723.54
5474.37
5237.46
5012.85
4800.18
4597.97
4405.49
4223.35
4050.25
3884.98
3728.67
3580
3437.92
3304.14
3175.01
3054.63
2937.03
2828.85
2721.6
2624.27
2526.8
2439.05
2350.53
2271.37
2190.87
2119.54
2046.32
1982.07
1915.46
1857.55
1796.99
1744.66
1689.72
1642.28
1592.74
1549.69
1505.31
1466.13
1426.66
1391.12
1356.68
1324.62
1294.21
1265.62
1238.72
1213.54
1190.29
1169.6
1152.42
1137.16
1117.25
1084.85
1016.06
831.874
422.539
305.417
300.182
300.007
300
300
300
300
300
300
300
300
300
300
300
300
300
300
300
300
300
300
300
300
300
300
300
300
300
300
300
300
300
300
300
300
300
300
300
300
300
300
300
300
300
300
300
300
300
300
300
300
300
300
300
300
300
300
300
300
300
300
300
300
300
300
300
300
300
300
300
300
300
300
300
300
300
300
300
300
300
300
300
300
300
300
300
300
300
300
300
300
300
300
300
300
300
300
300
300
300
300
300
300
300
300
300
300
300
300
300
300
300
300
300
300
300
300
300
300
300
300
300
300
300
300
300
300
300
300
300
300
300
300
300
300
300
300
300
300
300
300
300
300
300
300
300
300
300
300
300
300
300
300
300
300
300
300
300
300
300
300
300
300
300
300
300
300
300
300
300
300
300
300
300
300
300
300
300
300
300
300
300
300
300
300
300
300
300
300
300
300
300
300
300
300
300
300
300
300
300
300
300
300
300
300
300
300
300
300
300
300
300
300
300
300
300
300
300
300
300
300
300
300
300
300
300
300
300
300
300
300
300
300
300
300
300
300
300
300
300
300
300
300
300
300
300
300
300
300
300
300
300
300
300
300
300
300
300
300
300
300
300
300
300
300
300
300
300
300
300
300
300
300
300
300
300
300
300
300
300
300
300
300
)
;

boundaryField
{
    wedge0
    {
        type            wedge;
    }
    wedge1
    {
        type            wedge;
    }
    wedge2
    {
        type            wedge;
    }
    wedge3
    {
        type            wedge;
    }
    outlet
    {
        type            zeroGradient;
    }
    defaultFaces
    {
        type            empty;
    }
}


// ************************************************************************* //
