/*--------------------------------*- C++ -*----------------------------------*\
| =========                 |                                                 |
| \\      /  F ield         | OpenFOAM: The Open Source CFD Toolbox           |
|  \\    /   O peration     | Version:  2312                                  |
|   \\  /    A nd           | Website:  www.openfoam.com                      |
|    \\/     M anipulation  |                                                 |
\*---------------------------------------------------------------------------*/
FoamFile
{
    version     2.0;
    format      ascii;
    arch        "LSB;label=32;scalar=64";
    class       volScalarField;
    location    "7e-05";
    object      thermo:e;
}
// * * * * * * * * * * * * * * * * * * * * * * * * * * * * * * * * * * * * * //

dimensions      [0 2 -2 0 0 0 0];

internalField   nonuniform List<scalar> 
500
(
3.89057e+09
3.89024e+09
3.88957e+09
3.88848e+09
3.88689e+09
3.8847e+09
3.88182e+09
3.87815e+09
3.87359e+09
3.86805e+09
3.86144e+09
3.85366e+09
3.84461e+09
3.83422e+09
3.82238e+09
3.80902e+09
3.79405e+09
3.77738e+09
3.75893e+09
3.73863e+09
3.71641e+09
3.69218e+09
3.6659e+09
3.63749e+09
3.6069e+09
3.57407e+09
3.53895e+09
3.5015e+09
3.46169e+09
3.41947e+09
3.37483e+09
3.32775e+09
3.27821e+09
3.2262e+09
3.17174e+09
3.11482e+09
3.05548e+09
2.99372e+09
2.92959e+09
2.86314e+09
2.7944e+09
2.72346e+09
2.65038e+09
2.57524e+09
2.49813e+09
2.41916e+09
2.33845e+09
2.25612e+09
2.17232e+09
2.08741e+09
2.0028e+09
1.91994e+09
1.83922e+09
1.76085e+09
1.68486e+09
1.61124e+09
1.53997e+09
1.47104e+09
1.40442e+09
1.34009e+09
1.27802e+09
1.21816e+09
1.16049e+09
1.10497e+09
1.05156e+09
1.00021e+09
9.50885e+08
9.03538e+08
8.58122e+08
8.14589e+08
7.72892e+08
7.3298e+08
6.94804e+08
6.58314e+08
6.23459e+08
5.90188e+08
5.58451e+08
5.28197e+08
4.99375e+08
4.71935e+08
4.45827e+08
4.21003e+08
3.97414e+08
3.75011e+08
3.53749e+08
3.3358e+08
3.14459e+08
2.96343e+08
2.79188e+08
2.62951e+08
2.47592e+08
2.3307e+08
2.19347e+08
2.06385e+08
1.94148e+08
1.826e+08
1.71708e+08
1.61438e+08
1.51759e+08
1.42641e+08
1.34054e+08
1.25971e+08
1.18365e+08
1.11209e+08
1.04479e+08
9.81529e+07
9.22069e+07
8.66201e+07
8.13721e+07
7.64436e+07
7.18163e+07
6.74728e+07
6.33964e+07
5.95715e+07
5.59832e+07
5.26174e+07
4.94608e+07
4.65008e+07
4.37257e+07
4.11241e+07
3.86853e+07
3.63994e+07
3.42569e+07
3.22487e+07
3.03666e+07
2.86025e+07
2.6949e+07
2.53991e+07
2.39462e+07
2.25843e+07
2.13073e+07
2.01098e+07
1.89866e+07
1.79328e+07
1.6944e+07
1.60159e+07
1.51448e+07
1.4327e+07
1.3559e+07
1.28374e+07
1.21592e+07
1.15216e+07
1.09221e+07
1.03584e+07
9.82813e+06
9.32908e+06
8.85908e+06
8.41628e+06
7.99925e+06
7.6064e+06
7.23607e+06
6.88664e+06
6.55669e+06
6.24542e+06
5.95166e+06
5.67414e+06
5.41154e+06
5.16316e+06
4.92851e+06
4.70652e+06
4.49602e+06
4.29648e+06
4.10779e+06
3.92896e+06
3.75893e+06
3.59772e+06
3.44509e+06
3.29996e+06
3.16182e+06
3.0311e+06
2.90686e+06
2.78825e+06
2.67607e+06
2.56936e+06
2.46739e+06
2.37138e+06
2.2787e+06
2.1923e+06
2.10791e+06
2.03027e+06
1.95329e+06
1.88344e+06
1.81348e+06
1.75051e+06
1.68697e+06
1.63016e+06
1.57239e+06
1.52119e+06
1.46865e+06
1.42253e+06
1.37473e+06
1.33316e+06
1.2897e+06
1.25215e+06
1.21271e+06
1.17866e+06
1.14311e+06
1.11221e+06
1.08036e+06
1.05225e+06
1.02391e+06
998406
973692
950682
928856
908335
889026
870958
854275
839423
827093
816139
801847
778597
729224
597036
303256
219198
215441
215315
215310
215310
215310
215310
215310
215310
215310
215310
215310
215310
215310
215310
215310
215310
215310
215310
215310
215310
215310
215310
215310
215310
215310
215310
215310
215310
215310
215310
215310
215310
215310
215310
215310
215310
215310
215310
215310
215310
215310
215310
215310
215310
215310
215310
215310
215310
215310
215310
215310
215310
215310
215310
215310
215310
215310
215310
215310
215310
215310
215310
215310
215310
215310
215310
215310
215310
215310
215310
215310
215310
215310
215310
215310
215310
215310
215310
215310
215310
215310
215310
215310
215310
215310
215310
215310
215310
215310
215310
215310
215310
215310
215310
215310
215310
215310
215310
215310
215310
215310
215310
215310
215310
215310
215310
215310
215310
215310
215310
215310
215310
215310
215310
215310
215310
215310
215310
215310
215310
215310
215310
215310
215310
215310
215310
215310
215310
215310
215310
215310
215310
215310
215310
215310
215310
215310
215310
215310
215310
215310
215310
215310
215310
215310
215310
215310
215310
215310
215310
215310
215310
215310
215310
215310
215310
215310
215310
215310
215310
215310
215310
215310
215310
215310
215310
215310
215310
215310
215310
215310
215310
215310
215310
215310
215310
215310
215310
215310
215310
215310
215310
215310
215310
215310
215310
215310
215310
215310
215310
215310
215310
215310
215310
215310
215310
215310
215310
215310
215310
215310
215310
215310
215310
215310
215310
215310
215310
215310
215310
215310
215310
215310
215310
215310
215310
215310
215310
215310
215310
215310
215310
215310
215310
215310
215310
215310
215310
215310
215310
215310
215310
215310
215310
215310
215310
215310
215310
215310
215310
215310
215310
215310
215310
215310
215310
215310
215310
215310
215310
215310
215310
215310
215310
215310
215310
215310
215310
215310
215310
215310
215310
215310
215310
215310
215310
215310
215310
215310
215310
215310
215310
215310
215310
215310
215310
215310
215310
215310
215310
215310
215310
)
;

boundaryField
{
    wedge0
    {
        type            wedge;
    }
    wedge1
    {
        type            wedge;
    }
    wedge2
    {
        type            wedge;
    }
    wedge3
    {
        type            wedge;
    }
    outlet
    {
        type            zeroGradient;
    }
    defaultFaces
    {
        type            empty;
    }
}


// ************************************************************************* //
