/*--------------------------------*- C++ -*----------------------------------*\
| =========                 |                                                 |
| \\      /  F ield         | OpenFOAM: The Open Source CFD Toolbox           |
|  \\    /   O peration     | Version:  2312                                  |
|   \\  /    A nd           | Website:  www.openfoam.com                      |
|    \\/     M anipulation  |                                                 |
\*---------------------------------------------------------------------------*/
FoamFile
{
    version     2.0;
    format      ascii;
    arch        "LSB;label=32;scalar=64";
    class       volVectorField;
    location    "7e-05";
    object      U;
}
// * * * * * * * * * * * * * * * * * * * * * * * * * * * * * * * * * * * * * //

dimensions      [0 1 -1 0 0 0 0];

internalField   nonuniform List<vector> 
500
(
(3.05409 -1.6957e-08 1.77093e-08)
(6.21125 -1.63954e-08 1.7207e-08)
(9.73847 -1.718e-08 1.80027e-08)
(13.356 -1.78029e-08 1.86336e-08)
(17.0081 -1.70324e-08 1.78446e-08)
(20.6788 -1.74951e-08 1.82961e-08)
(24.3625 -1.77883e-08 1.86026e-08)
(28.0563 -1.80487e-08 1.87962e-08)
(31.7588 -1.73158e-08 1.79992e-08)
(35.4703 -1.58183e-08 1.643e-08)
(39.1914 -1.43082e-08 1.48481e-08)
(42.922 -1.29174e-08 1.34418e-08)
(46.6618 -1.15412e-08 1.20294e-08)
(50.4108 -9.80529e-09 1.02829e-08)
(54.1691 -7.8333e-09 8.30484e-09)
(57.9371 -5.85742e-09 6.2855e-09)
(61.716 -3.70391e-09 4.10027e-09)
(65.5071 -2.5625e-09 2.94387e-09)
(69.3122 -1.24151e-09 1.58805e-09)
(73.1333 -7.58926e-10 1.06948e-09)
(76.9711 -5.34413e-10 8.15579e-10)
(80.8256 -5.59015e-10 8.15542e-10)
(84.6996 -8.31591e-10 1.0681e-09)
(88.594 -1.36884e-09 1.58755e-09)
(92.5105 -1.52936e-09 1.74461e-09)
(96.4514 -1.41428e-09 1.60984e-09)
(100.419 -1.50751e-09 1.68546e-09)
(104.414 -2.00598e-09 2.16567e-09)
(108.439 -1.61363e-09 1.78219e-09)
(112.496 -1.48224e-09 1.63411e-09)
(116.587 -1.54833e-09 1.69936e-09)
(120.715 -1.94063e-09 2.07576e-09)
(124.882 -1.65739e-09 1.78908e-09)
(129.09 -1.45923e-09 1.53447e-09)
(133.344 -1.25578e-09 1.31111e-09)
(137.645 -1.11821e-09 1.11821e-09)
(141.997 -9.77653e-10 9.77656e-10)
(146.404 -9.67449e-10 9.67484e-10)
(150.869 -1.09567e-09 1.09567e-09)
(155.397 -1.46206e-09 1.46206e-09)
(159.992 -1.55094e-09 1.55094e-09)
(164.657 -1.26702e-09 1.26702e-09)
(169.399 -1.06708e-09 1.06708e-09)
(174.222 -9.81954e-10 9.81954e-10)
(179.132 -9.51773e-10 9.51773e-10)
(184.135 -1.05636e-09 1.05636e-09)
(189.239 -9.15005e-10 9.15005e-10)
(194.318 -8.71555e-10 8.71555e-10)
(199.105 -8.44603e-10 8.44603e-10)
(201.768 -8.38149e-10 8.38149e-10)
(201.091 -8.34563e-10 8.34563e-10)
(201.541 -8.26451e-10 8.26451e-10)
(204.294 -8.14776e-10 8.14776e-10)
(207.698 -7.71398e-10 7.71398e-10)
(211.278 -6.46585e-10 6.46585e-10)
(214.922 -5.21996e-10 5.21996e-10)
(218.612 -3.47859e-10 3.47859e-10)
(222.315 -2.10857e-10 2.10857e-10)
(226.022 -1.27237e-10 1.27237e-10)
(229.74 1.82886e-10 -1.82886e-10)
(233.454 8.2901e-11 -8.2901e-11)
(237.177 1.62895e-12 -1.62895e-12)
(240.896 1.63837e-12 -1.63837e-12)
(244.622 1.58584e-12 -1.58584e-12)
(248.344 0 3.24128e-31)
(252.071 2.27251e-11 -2.27251e-11)
(255.795 -1.04797e-11 1.04797e-11)
(259.521 1.64287e-10 -1.64287e-10)
(263.243 1.08855e-10 -1.08855e-10)
(266.965 6.44463e-11 -6.44463e-11)
(270.681 2.96316e-11 -2.96316e-11)
(274.396 9.75149e-12 -9.75149e-12)
(278.103 1.32817e-12 -1.32817e-12)
(281.805 9.55914e-12 -9.55914e-12)
(285.499 -1.73688e-11 1.73688e-11)
(289.185 7.30752e-11 -7.30752e-11)
(292.861 4.90751e-11 -4.90751e-11)
(296.528 2.43905e-11 -2.43905e-11)
(300.185 8.96058e-12 -8.96058e-12)
(303.833 1.20711e-12 -1.2079e-12)
(307.471 8.26636e-12 -8.2668e-12)
(311.103 -1.34415e-11 1.3442e-11)
(314.728 3.65882e-11 -3.65898e-11)
(318.348 2.80721e-11 -2.80719e-11)
(321.968 3.93732e-11 -3.93368e-11)
(325.587 -5.83898e-12 5.52963e-12)
(329.212 5.70037e-12 -3.23348e-12)
(332.84 -1.70687e-11 5.70669e-12)
(336.483 -1.68742e-11 1.36734e-11)
(340.135 -1.27232e-12 1.27219e-12)
(343.806 -2.09811e-11 2.49955e-11)
(347.495 -2.75419e-11 3.24401e-11)
(351.202 -5.97726e-12 8.1648e-12)
(354.934 -2.06255e-11 2.08759e-11)
(358.685 -1.97042e-11 2.06362e-11)
(362.457 -9.74524e-12 1.01147e-11)
(366.252 -1.21655e-11 1.21021e-11)
(370.059 -5.27172e-12 6.19112e-13)
(373.884 -1.33106e-11 9.08143e-12)
(377.714 7.8835e-12 -7.88316e-12)
(381.548 -4.39988e-12 4.4001e-12)
(385.379 7.61664e-12 -7.61665e-12)
(389.194 -7.08933e-12 7.2229e-12)
(392.993 6.93894e-12 -7.23582e-12)
(396.762 -5.78728e-12 7.16794e-12)
(400.508 5.7149e-12 -6.2846e-12)
(404.225 -2.53937e-12 3.49959e-12)
(407.926 6.89187e-13 -3.51797e-12)
(411.62 -2.10639e-13 5.93977e-13)
(415.32 3.21179e-12 -3.21154e-12)
(419.036 -4.85392e-13 4.85184e-13)
(422.778 5.83252e-12 -5.83232e-12)
(426.558 5.84031e-12 -5.99815e-12)
(430.367 5.51209e-12 -4.12676e-12)
(434.222 4.16598e-12 -3.89506e-12)
(438.1 7.68506e-12 -1.0359e-11)
(441.993 7.29217e-12 -7.29218e-12)
(445.876 6.84936e-12 -7.46773e-12)
(449.725 8.58098e-12 -7.88906e-12)
(453.533 6.57015e-12 -6.40283e-12)
(457.304 2.85541e-12 -2.67847e-12)
(461.053 4.04934e-12 -4.26064e-12)
(464.806 4.34372e-12 -4.03589e-12)
(468.581 3.66253e-12 -3.66258e-12)
(472.397 3.63223e-12 -3.63231e-12)
(476.271 3.7207e-12 -3.70272e-12)
(480.191 3.36604e-12 -2.96361e-12)
(484.139 2.43642e-12 -2.28942e-12)
(488.059 2.13602e-12 -2.11327e-12)
(491.927 1.94832e-12 -1.94995e-12)
(495.759 1.79995e-12 -2.2357e-12)
(499.573 1.44204e-12 -1.01703e-12)
(503.406 1.36553e-12 -3.27291e-13)
(507.292 2.09164e-13 -1.62797e-13)
(511.246 3.48356e-13 -4.73516e-13)
(515.249 -1.39403e-12 1.32073e-12)
(519.22 -2.29071e-13 5.30355e-13)
(523.141 -1.30227e-13 4.95793e-15)
(527.032 -2.2291e-13 1.50298e-13)
(530.93 2.02029e-14 -2.22988e-13)
(534.886 -1.34423e-14 9.59726e-14)
(538.924 2.21228e-13 -2.21222e-13)
(542.992 -2.22504e-13 2.22492e-13)
(546.992 -2.88809e-14 1.82277e-13)
(550.965 -1.50719e-13 1.35133e-13)
(554.943 2.20977e-14 -2.21106e-14)
(559.003 -2.20732e-13 1.269e-13)
(563.157 -7.53029e-14 -5.74043e-14)
(567.293 -2.10955e-13 4.88995e-14)
(571.341 -5.0669e-14 -4.90595e-14)
(575.4 2.45648e-13 -3.28842e-13)
(579.547 4.24802e-14 -1.38695e-13)
(583.829 -5.52729e-14 -2.28866e-14)
(588.07 -2.25912e-14 -1.23462e-13)
(592.201 1.05828e-13 -2.20229e-13)
(596.375 -2.58321e-13 2.74579e-13)
(600.723 2.04714e-13 -2.00275e-13)
(605.158 -3.8252e-13 4.00557e-13)
(609.415 1.60153e-14 -2.67069e-14)
(613.682 -2.86965e-13 2.91734e-13)
(618.145 -1.28812e-13 1.47042e-13)
(622.742 -4.43179e-13 4.44395e-13)
(627.114 -5.55588e-14 5.50101e-14)
(631.526 -2.59962e-13 2.59983e-13)
(636.223 -3.03275e-13 3.07145e-13)
(640.939 -2.54545e-13 2.52035e-13)
(645.396 -2.74624e-13 2.7415e-13)
(650.091 -1.28257e-13 1.27821e-13)
(655.077 -7.43844e-14 7.34151e-14)
(659.722 -7.36031e-14 7.41128e-14)
(664.511 -6.84518e-14 6.85947e-14)
(669.698 -8.8869e-14 8.85992e-14)
(674.499 -1.62414e-13 1.62415e-13)
(679.492 -1.30586e-13 1.30585e-13)
(684.912 -1.28834e-13 1.28878e-13)
(689.814 -1.84016e-13 1.84151e-13)
(695.528 -1.38366e-13 1.38537e-13)
(700.45 -1.29622e-13 1.29781e-13)
(706.538 -1.78226e-13 1.78396e-13)
(711.434 -1.3516e-13 1.35295e-13)
(717.927 -1.05419e-13 1.05401e-13)
(722.772 -9.4999e-14 9.51798e-14)
(729.596 -8.94997e-14 8.9744e-14)
(734.483 -5.6863e-14 5.69865e-14)
(741.661 -6.19845e-14 6.18675e-14)
(746.605 -4.88319e-14 4.87369e-14)
(754.186 -3.85082e-14 3.85042e-14)
(759.185 -3.65241e-14 3.64677e-14)
(767.2 -1.59577e-14 1.59044e-14)
(772.257 -3.73626e-14 3.73231e-14)
(780.681 1.35158e-15 -1.28999e-15)
(785.832 -5.77303e-15 5.69353e-15)
(794.556 1.5963e-14 -1.60092e-14)
(799.891 -3.8104e-16 2.95306e-16)
(808.706 1.5348e-15 -1.5348e-15)
(814.385 1.9631e-14 -1.9631e-14)
(823.078 6.15771e-15 -6.16712e-15)
(829.318 -1.73568e-15 1.73676e-15)
(837.871 -5.73797e-15 5.74235e-15)
(844.708 1.28912e-15 -1.26494e-15)
(853.045 6.25869e-15 -6.22654e-15)
(860.632 1.01199e-14 -1.01787e-14)
(868.946 1.35571e-14 -1.35129e-14)
(877.251 4.27277e-15 -4.23298e-15)
(885.808 2.55601e-14 -2.55127e-14)
(894.497 -1.91123e-14 1.91422e-14)
(903.344 1.51119e-14 -1.50176e-14)
(912.366 -9.18609e-15 9.18978e-15)
(921.725 5.54757e-15 -5.51436e-15)
(932.083 -4.10571e-16 4.12957e-16)
(945.617 -8.61165e-16 8.61165e-16)
(960.648 -3.07917e-15 3.07917e-15)
(961.816 -8.09439e-15 8.09439e-15)
(947.01 -1.01702e-14 1.01702e-14)
(878.354 -2.17911e-14 2.17911e-14)
(631.389 -3.68066e-14 3.68066e-14)
(146.356 -2.5799e-14 2.5799e-14)
(10.0156 -8.93216e-15 8.93216e-15)
(0.44106 0 0)
(0.0187982 0 0)
(0.0007981 0 0)
(3.37768e-05 0 0)
(1.42415e-06 3.87149e-16 -3.87149e-16)
(5.97515e-08 6.14306e-15 -6.14306e-15)
(2.39303e-09 1.5036e-14 -1.5036e-14)
(-2.56929e-11 3.47639e-15 -3.47639e-15)
(-7.01715e-11 -6.92953e-15 6.92953e-15)
(-4.44016e-12 -2.46453e-14 2.46453e-14)
(2.58691e-11 -2.15642e-14 2.15642e-14)
(1.16546e-11 -2.23679e-14 2.23679e-14)
(-2.20902e-11 -2.6952e-14 2.6952e-14)
(-1.56538e-11 -1.87756e-14 1.87756e-14)
(-3.23561e-12 -8.06264e-15 8.06264e-15)
(-1.29888e-11 0 0)
(-3.66867e-11 0 0)
(-2.73052e-11 0 0)
(1.37914e-11 0 0)
(2.99089e-11 0 0)
(-4.53959e-12 -5.23992e-16 5.23992e-16)
(-4.70894e-11 -6.44197e-15 6.44197e-15)
(5.83126e-11 -2.96469e-14 2.96469e-14)
(6.44045e-11 -2.77965e-14 2.77965e-14)
(4.30498e-11 -3.25832e-14 3.25832e-14)
(-3.11247e-11 3.98673e-14 -3.98673e-14)
(-1.51784e-12 3.28753e-14 -3.28753e-14)
(1.55003e-11 2.53392e-14 -2.53392e-14)
(8.94009e-12 1.10502e-14 -1.10502e-14)
(-1.61047e-11 7.59598e-15 -7.59598e-15)
(-1.73446e-11 8.87231e-15 -8.87231e-15)
(5.02015e-12 -1.43051e-15 1.43051e-15)
(7.18799e-12 -8.02135e-16 8.02135e-16)
(7.115e-12 0 0)
(1.62507e-11 0 0)
(1.44956e-11 0 0)
(-3.40343e-11 0 0)
(-3.96925e-11 0 0)
(-2.0538e-11 -3.24689e-15 3.24689e-15)
(-1.45004e-11 -1.72268e-14 1.72268e-14)
(-8.49378e-12 -5.76603e-15 5.76603e-15)
(-1.57714e-11 -1.29851e-15 1.29851e-15)
(-2.04905e-11 0 0)
(-5.05055e-12 0 0)
(1.97354e-11 3.91409e-15 -3.91409e-15)
(3.48739e-11 9.67726e-15 -9.67726e-15)
(3.63991e-11 2.34878e-14 -2.34878e-14)
(7.27136e-12 2.28697e-14 -2.28697e-14)
(-1.20432e-12 2.47571e-14 -2.47571e-14)
(1.85453e-12 1.65631e-14 -1.65631e-14)
(-9.93066e-12 1.10869e-14 -1.10869e-14)
(-1.51124e-12 5.43705e-15 -5.43705e-15)
(-4.40199e-12 2.24757e-15 -2.24757e-15)
(3.87391e-12 0 0)
(4.789e-12 0 0)
(-2.12333e-11 -1.26763e-15 1.26763e-15)
(-2.36641e-11 -5.19823e-15 5.19823e-15)
(-1.79274e-11 -1.09144e-14 1.09144e-14)
(1.58468e-11 -2.80762e-15 2.80762e-15)
(2.14174e-11 0 0)
(2.04004e-11 0 0)
(1.64201e-11 2.11198e-16 -2.11198e-16)
(5.35141e-12 4.25414e-15 -4.25414e-15)
(-2.30526e-12 1.24448e-14 -1.24448e-14)
(-8.04998e-12 1.36738e-14 -1.36738e-14)
(3.0735e-12 5.24119e-15 -5.24119e-15)
(-1.77129e-11 -7.9068e-15 7.9068e-15)
(-2.21475e-11 -8.24206e-15 8.24206e-15)
(1.34345e-11 -5.64569e-15 5.64569e-15)
(1.50585e-11 -5.68557e-15 5.68557e-15)
(-1.281e-11 -6.83538e-15 6.83538e-15)
(-3.71988e-11 -2.56393e-15 2.56393e-15)
(-3.04797e-11 0 0)
(-1.71268e-11 6.945e-15 -6.945e-15)
(-8.26824e-12 -6.79051e-15 6.79051e-15)
(-1.8597e-12 -1.05313e-15 1.05313e-15)
(5.65883e-12 1.22327e-15 -1.22327e-15)
(2.51045e-11 3.71011e-15 -3.71011e-15)
(3.19927e-11 -3.40794e-15 3.40794e-15)
(2.66712e-11 -2.23913e-16 2.23913e-16)
(8.01021e-12 0 0)
(7.6374e-12 -3.52363e-15 3.52363e-15)
(-6.96315e-12 -6.79118e-15 6.79118e-15)
(-2.30503e-11 -3.70549e-15 3.70549e-15)
(-1.25726e-11 -6.08426e-15 6.08426e-15)
(2.14843e-12 0 0)
(1.99015e-11 4.03167e-15 -4.03167e-15)
(3.26995e-11 0 0)
(1.95697e-11 0 0)
(-6.17081e-12 -3.98361e-15 3.98361e-15)
(-1.44685e-11 -9.04566e-15 9.04566e-15)
(-1.47851e-11 -1.33512e-14 1.33512e-14)
(5.45568e-11 -3.88066e-15 3.88066e-15)
(1.10471e-10 0 0)
(6.66351e-11 0 0)
(-1.6166e-11 0 0)
(-6.15897e-11 4.89185e-15 -4.89185e-15)
(-8.01449e-11 1.88186e-15 -1.88186e-15)
(-4.6624e-11 0 0)
(-2.73634e-11 -8.30412e-15 8.30412e-15)
(-1.49989e-11 -1.93016e-14 1.93016e-14)
(1.26106e-11 -3.4274e-14 3.4274e-14)
(5.81273e-12 -3.96129e-14 3.96129e-14)
(-2.44542e-11 -4.29336e-14 4.29336e-14)
(3.1023e-11 -4.02388e-14 4.02388e-14)
(4.03432e-11 -4.39256e-14 4.39256e-14)
(2.83408e-11 -3.71288e-14 3.71288e-14)
(-4.15005e-11 -1.50351e-14 1.50351e-14)
(-5.45376e-11 -4.89611e-15 4.89611e-15)
(-3.70993e-11 0 0)
(1.23649e-13 2.78911e-15 -2.78911e-15)
(3.08994e-11 0 0)
(2.90633e-11 0 0)
(-3.17901e-11 0 0)
(-3.96264e-11 -1.7122e-15 1.7122e-15)
(-8.35351e-12 -6.79662e-15 6.79662e-15)
(9.53579e-12 -8.28733e-15 8.28733e-15)
(7.47613e-12 -2.94274e-15 2.94274e-15)
(1.86364e-11 0 0)
(2.50192e-11 0 0)
(2.82656e-11 0 0)
(1.57148e-11 0 0)
(2.89794e-12 -9.92158e-18 9.92158e-18)
(4.07946e-12 -3.94222e-15 3.94222e-15)
(-1.79521e-11 0 0)
(-3.04967e-11 5.6143e-16 -5.6143e-16)
(-5.20438e-12 3.67804e-15 -3.67804e-15)
(2.115e-11 2.27762e-15 -2.27762e-15)
(3.30147e-11 2.96622e-15 -2.96622e-15)
(2.94076e-11 -3.62742e-15 3.62742e-15)
(-6.12087e-12 -1.13348e-14 1.13348e-14)
(-1.53579e-11 -1.42399e-14 1.42399e-14)
(-8.32126e-12 -1.59053e-14 1.59053e-14)
(-1.76047e-11 -1.38927e-14 1.38927e-14)
(-1.45535e-11 -2.58224e-15 2.58224e-15)
(-2.27987e-12 0 0)
(1.07486e-11 8.95263e-16 -8.95263e-16)
(-1.40527e-11 9.68719e-16 -9.68719e-16)
(-3.64664e-11 -4.01898e-15 4.01898e-15)
(-3.19608e-11 -1.5029e-14 1.5029e-14)
(-1.47782e-11 -1.79018e-14 1.79018e-14)
(2.49292e-12 -1.47533e-14 1.47533e-14)
(1.52333e-11 -1.74496e-14 1.74496e-14)
(1.90243e-11 -6.52546e-15 6.52546e-15)
(3.43628e-11 -3.64121e-15 3.64121e-15)
(3.21909e-11 -5.14661e-15 5.14661e-15)
(5.00401e-12 -2.27517e-15 2.27517e-15)
(1.3423e-11 -3.7848e-15 3.7848e-15)
(2.08153e-11 0 0)
(9.58692e-12 2.23436e-15 -2.23436e-15)
(-2.47914e-11 0 0)
(-4.39012e-11 0 0)
(-2.77596e-11 -2.06015e-15 2.06015e-15)
(-7.38744e-12 -1.21508e-14 1.21508e-14)
(-1.97451e-12 -1.49655e-14 1.49655e-14)
(9.51294e-12 -2.06056e-14 2.06056e-14)
(1.23495e-11 -2.1344e-14 2.1344e-14)
(9.23565e-12 -1.84972e-14 1.84972e-14)
(2.1835e-11 -6.42752e-15 6.42752e-15)
(3.68467e-11 -1.46985e-15 1.46985e-15)
(2.51532e-11 0 0)
(-4.62701e-12 3.80622e-15 -3.80622e-15)
(-2.84995e-11 1.33235e-15 -1.33235e-15)
(-4.11212e-11 3.15057e-15 -3.15057e-15)
(-2.51061e-11 1.68418e-16 -1.68418e-16)
(-4.63201e-12 0 0)
(-3.99465e-11 -2.23793e-15 2.23793e-15)
(-4.49127e-11 0 0)
(-2.59238e-11 0 0)
(-5.77128e-12 1.28673e-15 -1.28673e-15)
(3.826e-11 7.61487e-15 -7.61487e-15)
(5.50648e-11 7.90444e-15 -7.90444e-15)
(3.78567e-11 4.15892e-15 -4.15892e-15)
(2.5262e-11 1.55137e-16 -1.55137e-16)
(1.2445e-11 0 0)
(-8.65583e-12 4.60271e-15 -4.60271e-15)
(-2.17069e-12 0 0)
(-1.50469e-11 0 0)
(-4.06361e-11 0 0)
(-2.10914e-11 0 0)
(2.56613e-11 0 0)
(2.68315e-11 0 0)
(-5.41164e-12 0 0)
(-2.91268e-11 0 0)
(4.81301e-11 4.07363e-15 -4.07363e-15)
(5.93808e-11 1.30588e-14 -1.30588e-14)
(2.46592e-11 2.09484e-14 -2.09484e-14)
(1.12518e-11 2.98922e-14 -2.98922e-14)
(2.77342e-11 3.32313e-14 -3.32313e-14)
(-3.28008e-11 1.12206e-14 -1.12206e-14)
(-3.64977e-11 4.07346e-15 -4.07346e-15)
(-2.95513e-11 9.12829e-16 -9.12829e-16)
(-3.21696e-11 0 0)
(-3.78306e-11 0 0)
(-1.75508e-11 0 0)
(-9.50246e-12 0 0)
(-2.75229e-11 0 0)
(-1.97351e-11 0 0)
(1.73539e-11 0 0)
(2.5977e-11 -1.29453e-16 1.29453e-16)
(4.37296e-12 -1.29671e-16 1.29671e-16)
(-1.05095e-11 2.66338e-15 -2.66338e-15)
(-1.11725e-11 0 0)
(-1.30282e-11 -1.30971e-15 1.30971e-15)
(-1.2615e-11 -5.41937e-15 5.41937e-15)
(1.20174e-11 -4.66461e-15 4.66461e-15)
(3.05571e-11 -6.0365e-15 6.0365e-15)
(2.31505e-11 -4.71953e-15 4.71953e-15)
(-2.06664e-11 -7.29144e-15 7.29144e-15)
(4.58907e-12 -4.42672e-15 4.42672e-15)
(3.14228e-11 -3.96044e-15 3.96044e-15)
(2.01829e-11 4.19105e-16 -4.19105e-16)
(4.5742e-12 1.3425e-15 -1.3425e-15)
(1.7218e-11 3.22864e-15 -3.22864e-15)
(3.18276e-11 1.39028e-15 -1.39028e-15)
(1.58113e-12 2.32225e-15 -2.32225e-15)
(-2.04859e-11 8.49637e-16 -8.49637e-16)
(-1.01301e-11 1.27997e-15 -1.27997e-15)
(2.54533e-11 -2.62245e-15 2.62245e-15)
(4.31437e-11 -2.07253e-15 2.07253e-15)
(2.1157e-11 -4.02665e-15 4.02665e-15)
(-1.53303e-11 -9.69837e-15 9.69837e-15)
(-1.96443e-11 -1.43919e-14 1.43919e-14)
(-4.99316e-12 -1.20905e-14 1.20905e-14)
(-2.71553e-11 -2.85812e-15 2.85812e-15)
(-1.43685e-11 7.32468e-15 -7.32468e-15)
(-1.50786e-11 1.38457e-14 -1.38457e-14)
(-5.39138e-11 1.02237e-14 -1.02237e-14)
(-7.6596e-12 6.79751e-15 -6.79751e-15)
(3.40975e-11 5.6489e-15 -5.6489e-15)
(2.0461e-11 7.30349e-15 -7.30349e-15)
(-2.14458e-11 1.44787e-14 -1.44787e-14)
(-1.1239e-11 8.63543e-15 -8.63543e-15)
(1.54466e-11 -1.15872e-15 1.15872e-15)
(1.15181e-11 -1.09338e-14 1.09338e-14)
(2.68588e-12 -7.16475e-15 7.16475e-15)
(-5.86038e-12 -7.18245e-15 7.18245e-15)
(-4.26047e-12 -9.3836e-15 9.3836e-15)
(1.08353e-11 -1.37488e-14 1.37488e-14)
(8.476e-12 -2.02593e-14 2.02593e-14)
(1.36223e-11 -2.88218e-14 2.88218e-14)
(-1.12482e-11 -3.40111e-14 3.40111e-14)
(-2.08041e-11 -3.33924e-14 3.33924e-14)
(-1.46116e-11 -3.0637e-14 3.0637e-14)
(-1.24479e-11 -1.8281e-14 1.8281e-14)
(5.76736e-12 -1.46265e-14 1.46265e-14)
(1.104e-11 -8.60344e-15 8.60344e-15)
(1.77335e-11 -2.1525e-16 2.1525e-16)
(2.57262e-11 0 0)
(2.27996e-11 0 0)
(1.0799e-11 0 0)
(-2.37666e-11 0 0)
(-2.79753e-11 0 0)
(1.95029e-11 1.54762e-15 -1.54762e-15)
(1.254e-11 5.62982e-15 -5.62982e-15)
(9.81611e-13 -5.47872e-15 5.47872e-15)
(-5.67642e-12 -1.43974e-14 1.43974e-14)
(1.09517e-11 -1.23422e-14 1.23422e-14)
(1.22357e-11 -1.24672e-14 1.24672e-14)
(-6.10682e-12 -6.56925e-15 6.56925e-15)
(-1.03748e-11 1.22612e-15 -1.22612e-15)
(-2.33189e-11 6.99175e-15 -6.99175e-15)
(-3.39921e-11 1.57056e-15 -1.57056e-15)
(-3.47615e-12 0 0)
(3.19407e-11 0 0)
(3.54059e-11 -5.37248e-17 5.37248e-17)
(7.65418e-12 -2.01008e-15 2.01008e-15)
(-1.64399e-11 -5.88016e-15 5.88016e-15)
(-1.53655e-11 -2.10474e-15 2.10474e-15)
(-7.66718e-12 -6.71525e-15 6.71525e-15)
(-1.36323e-11 -1.47709e-14 1.47709e-14)
(-1.45695e-11 -2.53922e-14 2.53922e-14)
(-1.44974e-11 -2.59054e-14 2.59054e-14)
(-2.18449e-11 -2.40808e-14 2.40808e-14)
(-4.24508e-12 -1.80117e-14 1.80117e-14)
(2.98453e-12 -9.76024e-15 9.76024e-15)
(2.06204e-11 -5.93089e-15 5.93089e-15)
(2.76835e-11 -5.11075e-15 5.11075e-15)
(1.35096e-11 -6.53954e-15 6.53954e-15)
(5.02822e-11 -9.34777e-15 9.34777e-15)
(6.18885e-11 -2.45772e-15 2.45772e-15)
(4.69533e-11 -6.42357e-16 6.42357e-16)
)
;

boundaryField
{
    wedge0
    {
        type            wedge;
    }
    wedge1
    {
        type            wedge;
    }
    wedge2
    {
        type            wedge;
    }
    wedge3
    {
        type            wedge;
    }
    outlet
    {
        type            zeroGradient;
    }
    defaultFaces
    {
        type            empty;
    }
}


// ************************************************************************* //
