/*--------------------------------*- C++ -*----------------------------------*\
| =========                 |                                                 |
| \\      /  F ield         | OpenFOAM: The Open Source CFD Toolbox           |
|  \\    /   O peration     | Version:  2312                                  |
|   \\  /    A nd           | Website:  www.openfoam.com                      |
|    \\/     M anipulation  |                                                 |
\*---------------------------------------------------------------------------*/
FoamFile
{
    version     2.0;
    format      ascii;
    arch        "LSB;label=32;scalar=64";
    class       volScalarField;
    location    "0.008";
    object      p;
}
// * * * * * * * * * * * * * * * * * * * * * * * * * * * * * * * * * * * * * //

dimensions      [1 -1 -2 0 0 0 0];

internalField   nonuniform List<scalar> 
100
(
318336
312974
307363
301760
296185
290645
285145
279693
274291
268944
263655
258427
253263
248164
243132
238169
233276
228453
223701
219021
214413
209879
205418
201031
196718
192480
188319
184234
180226
176297
172448
168681
164997
161398
157886
154465
151137
147908
144780
141761
138856
136073
133419
130906
128543
126341
124313
122469
120820
119371
118126
117083
116234
115563
115050
114673
114405
114223
114105
114033
113991
113970
113961
113960
113964
113970
113977
113985
113993
114001
114008
114016
114023
114031
114039
114051
114069
114101
114159
114258
114421
114671
115023
115480
116021
116605
117182
117700
118124
118442
118658
118791
118862
118894
118901
118896
118885
118871
118857
118842
)
;

boundaryField
{
    sides
    {
        type            zeroGradient;
    }
    empty
    {
        type            empty;
    }
}


// ************************************************************************* //
