/*--------------------------------*- C++ -*----------------------------------*\
| =========                 |                                                 |
| \\      /  F ield         | OpenFOAM: The Open Source CFD Toolbox           |
|  \\    /   O peration     | Version:  2312                                  |
|   \\  /    A nd           | Website:  www.openfoam.com                      |
|    \\/     M anipulation  |                                                 |
\*---------------------------------------------------------------------------*/
FoamFile
{
    version     2.0;
    format      ascii;
    arch        "LSB;label=32;scalar=64";
    class       volScalarField;
    location    "0.008";
    object      rho;
}
// * * * * * * * * * * * * * * * * * * * * * * * * * * * * * * * * * * * * * //

dimensions      [1 -3 0 0 0 0 0];

internalField   nonuniform List<scalar> 
100
(
0.993603
0.983626
0.973107
0.962518
0.951898
0.94126
0.930616
0.919976
0.909349
0.898745
0.888169
0.877629
0.86713
0.856677
0.846275
0.835927
0.825636
0.815407
0.805241
0.795142
0.785112
0.775153
0.76527
0.755463
0.745738
0.736096
0.726541
0.717077
0.70771
0.698442
0.689281
0.680231
0.671301
0.662498
0.65383
0.645309
0.636947
0.628758
0.620757
0.612964
0.605401
0.598092
0.591066
0.584354
0.577993
0.57202
0.566474
0.561394
0.556813
0.55276
0.549247
0.546276
0.543828
0.541865
0.540335
0.539173
0.538309
0.537677
0.537213
0.536866
0.536595
0.536368
0.536162
0.535961
0.535752
0.535525
0.53527
0.534979
0.534637
0.534229
0.53373
0.533109
0.532322
0.531309
0.529991
0.52827
0.526025
0.523121
0.51941
0.514744
0.508982
0.501996
0.493669
0.483897
0.472598
0.459739
0.445367
0.429642
0.412839
0.395327
0.377525
0.359848
0.34267
0.326297
0.310961
0.29682
0.283981
0.272549
0.262792
0.255747
)
;

boundaryField
{
    sides
    {
        type            zeroGradient;
    }
    empty
    {
        type            empty;
    }
}


// ************************************************************************* //
