/*--------------------------------*- C++ -*----------------------------------*\
| =========                 |                                                 |
| \\      /  F ield         | OpenFOAM: The Open Source CFD Toolbox           |
|  \\    /   O peration     | Version:  2312                                  |
|   \\  /    A nd           | Website:  www.openfoam.com                      |
|    \\/     M anipulation  |                                                 |
\*---------------------------------------------------------------------------*/
FoamFile
{
    version     2.0;
    format      ascii;
    arch        "LSB;label=32;scalar=64";
    class       volScalarField;
    location    "0.008";
    object      T;
}
// * * * * * * * * * * * * * * * * * * * * * * * * * * * * * * * * * * * * * //

dimensions      [0 0 0 1 0 0 0];

internalField   nonuniform List<scalar> 
100
(
269.734
267.881
265.923
263.947
261.961
259.966
257.964
255.958
253.947
251.935
249.921
247.908
245.895
243.885
241.877
239.873
237.873
235.877
233.887
231.902
229.924
227.953
225.989
224.033
222.086
220.148
218.221
216.305
214.401
212.51
210.633
208.772
206.929
205.105
203.302
201.523
199.771
198.048
196.359
194.709
193.101
191.543
190.041
188.602
187.236
185.951
184.757
183.664
182.68
181.814
181.068
180.446
179.943
179.552
179.262
179.059
178.928
178.853
178.823
178.824
178.849
178.892
178.947
179.013
179.088
179.174
179.27
179.38
179.507
179.657
179.837
180.058
180.336
180.691
181.155
181.764
182.569
183.634
185.038
186.878
189.264
192.316
196.162
200.917
206.684
213.536
221.516
230.638
240.892
252.24
264.617
277.925
292.033
306.767
321.917
337.239
352.453
367.194
380.782
391.22
)
;

boundaryField
{
    sides
    {
        type            zeroGradient;
    }
    empty
    {
        type            empty;
    }
}


// ************************************************************************* //
