/*--------------------------------*- C++ -*----------------------------------*\
| =========                 |                                                 |
| \\      /  F ield         | OpenFOAM: The Open Source CFD Toolbox           |
|  \\    /   O peration     | Version:  2312                                  |
|   \\  /    A nd           | Website:  www.openfoam.com                      |
|    \\/     M anipulation  |                                                 |
\*---------------------------------------------------------------------------*/
FoamFile
{
    version     2.0;
    format      ascii;
    arch        "LSB;label=32;scalar=64";
    class       volScalarField;
    location    "0.008";
    object      thermo:e;
}
// * * * * * * * * * * * * * * * * * * * * * * * * * * * * * * * * * * * * * //

dimensions      [0 2 -2 0 0 0 0];

internalField   nonuniform List<scalar> 
100
(
463404
460219
456855
453461
450049
446621
443183
439735
436282
432824
429365
425906
422448
418994
415545
412101
408665
405237
401817
398408
395009
391623
388249
384889
381544
378215
374904
371612
368340
365092
361868
358671
355504
352370
349273
346217
343206
340247
337345
334510
331748
329071
326490
324018
321671
319463
317412
315534
313845
312356
311075
310006
309141
308470
307971
307623
307398
307270
307218
307220
307263
307336
307431
307544
307674
307820
307986
308175
308394
308651
308959
309339
309816
310428
311224
312270
313653
315483
317896
321057
325155
330400
337006
345176
355083
366854
380564
396237
413853
433348
454611
477476
501713
527026
553053
579377
605514
630840
654183
672117
)
;

boundaryField
{
    sides
    {
        type            zeroGradient;
    }
    empty
    {
        type            empty;
    }
}


// ************************************************************************* //
