/*--------------------------------*- C++ -*----------------------------------*\
| =========                 |                                                 |
| \\      /  F ield         | OpenFOAM: The Open Source CFD Toolbox           |
|  \\    /   O peration     | Version:  2312                                  |
|   \\  /    A nd           | Website:  www.openfoam.com                      |
|    \\/     M anipulation  |                                                 |
\*---------------------------------------------------------------------------*/
FoamFile
{
    version     2.0;
    format      ascii;
    arch        "LSB;label=32;scalar=64";
    class       volVectorField;
    location    "0.008";
    object      U;
}
// * * * * * * * * * * * * * * * * * * * * * * * * * * * * * * * * * * * * * //

dimensions      [0 1 -1 0 0 0 0];

internalField   nonuniform List<vector> 
100
(
(122.5 0 0)
(129.442 0 0)
(136.837 0 0)
(144.361 0 0)
(151.991 0 0)
(159.718 0 0)
(167.536 0 0)
(175.437 0 0)
(183.417 0 0)
(191.47 0 0)
(199.591 0 0)
(207.775 0 0)
(216.016 0 0)
(224.311 0 0)
(232.656 0 0)
(241.044 0 0)
(249.473 0 0)
(257.938 0 0)
(266.435 0 0)
(274.959 0 0)
(283.507 0 0)
(292.074 0 0)
(300.656 0 0)
(309.25 0 0)
(317.85 0 0)
(326.453 0 0)
(335.054 0 0)
(343.647 0 0)
(352.229 0 0)
(360.791 0 0)
(369.33 0 0)
(377.836 0 0)
(386.302 0 0)
(394.719 0 0)
(403.075 0 0)
(411.357 0 0)
(419.552 0 0)
(427.642 0 0)
(435.607 0 0)
(443.423 0 0)
(451.063 0 0)
(458.496 0 0)
(465.685 0 0)
(472.591 0 0)
(479.168 0 0)
(485.367 0 0)
(491.137 0 0)
(496.431 0 0)
(501.201 0 0)
(505.414 0 0)
(509.047 0 0)
(512.097 0 0)
(514.584 0 0)
(516.546 0 0)
(518.042 0 0)
(519.142 0 0)
(519.919 0 0)
(520.448 0 0)
(520.792 0 0)
(521.006 0 0)
(521.132 0 0)
(521.199 0 0)
(521.232 0 0)
(521.242 0 0)
(521.241 0 0)
(521.233 0 0)
(521.222 0 0)
(521.21 0 0)
(521.199 0 0)
(521.188 0 0)
(521.178 0 0)
(521.169 0 0)
(521.16 0 0)
(521.151 0 0)
(521.137 0 0)
(521.113 0 0)
(521.063 0 0)
(520.964 0 0)
(520.776 0 0)
(520.44 0 0)
(519.886 0 0)
(519.043 0 0)
(517.862 0 0)
(516.345 0 0)
(514.561 0 0)
(512.636 0 0)
(510.733 0 0)
(509.003 0 0)
(507.551 0 0)
(506.423 0 0)
(505.604 0 0)
(505.043 0 0)
(504.674 0 0)
(504.431 0 0)
(504.263 0 0)
(504.135 0 0)
(504.024 0 0)
(503.918 0 0)
(503.813 0 0)
(503.697 0 0)
)
;

boundaryField
{
    sides
    {
        type            zeroGradient;
    }
    empty
    {
        type            empty;
    }
}


// ************************************************************************* //
