/*--------------------------------*- C++ -*----------------------------------*\
| =========                 |                                                 |
| \\      /  F ield         | OpenFOAM: The Open Source CFD Toolbox           |
|  \\    /   O peration     | Version:  2312                                  |
|   \\  /    A nd           | Website:  www.openfoam.com                      |
|    \\/     M anipulation  |                                                 |
\*---------------------------------------------------------------------------*/
FoamFile
{
    version     2.0;
    format      ascii;
    arch        "LSB;label=32;scalar=64";
    class       volScalarField;
    location    "0.002";
    object      p;
}
// * * * * * * * * * * * * * * * * * * * * * * * * * * * * * * * * * * * * * //

dimensions      [1 -1 -2 0 0 0 0];

internalField   nonuniform List<scalar> 
100
(
100000
100000
100000
100000
100000
100000
100000
100000
100000
100000
100000
100000
100000
100000
100000
100000
100000
99999.9
99999.6
99998.8
99996.8
99991.8
99980.2
99954.4
99900.9
99796.6
99605.3
99276
98743.8
97935
96777.3
95211
93199.2
90734
87836.4
84551.6
80941.7
77077.5
73032
68875
64670.5
60475.2
56338.1
52301.2
48401.1
44670.5
41141.2
37848.7
34839.7
32187.5
30018.5
28536.4
27904.1
27795.8
27767.3
27755.9
27752.8
27755.1
27761.3
27770.3
27780.9
27792.4
27804
27814.5
27822.5
27824.8
27814.8
27778.7
27686.6
27476.6
27028.8
26132.8
24487.4
21832.1
18294
14681.4
12051.8
10723.5
10224
10065.1
10018.2
10005
10001.3
10000.3
10000.1
10000
10000
10000
10000
10000
10000
10000
10000
10000
10000
10000
10000
10000
10000
10000
)
;

boundaryField
{
    sides
    {
        type            zeroGradient;
    }
    empty
    {
        type            empty;
    }
}


// ************************************************************************* //
