/*--------------------------------*- C++ -*----------------------------------*\
| =========                 |                                                 |
| \\      /  F ield         | OpenFOAM: The Open Source CFD Toolbox           |
|  \\    /   O peration     | Version:  2212                                  |
|   \\  /    A nd           | Website:  www.openfoam.com                      |
|    \\/     M anipulation  |                                                 |
\*---------------------------------------------------------------------------*/
FoamFile
{
    version     2.0;
    format      ascii;
    arch        "LSB;label=32;scalar=64";
    class       volScalarField;
    location    "0.002";
    object      rho;
}
// * * * * * * * * * * * * * * * * * * * * * * * * * * * * * * * * * * * * * //

dimensions      [1 -3 0 0 0 0 0];

internalField   nonuniform List<scalar> 
100
(
1.16103
1.16103
1.16103
1.16103
1.16103
1.16103
1.16103
1.16103
1.16103
1.16103
1.16103
1.16103
1.16103
1.16103
1.16103
1.16103
1.16103
1.16103
1.16103
1.16103
1.16103
1.16103
1.16103
1.16103
1.16103
1.16103
1.16103
1.16103
1.16103
1.16103
1.16103
1.16103
1.16103
1.16103
1.16103
1.16103
1.16103
1.16103
1.16103
1.16103
1.16102
1.15976
1.13634
1.05573
0.951642
0.857089
0.772706
0.694931
0.620253
0.556181
0.494336
0.460381
0.467851
0.456409
0.422636
0.359704
0.280801
0.248812
0.245526
0.245665
0.221436
0.134245
0.116165
0.116103
0.116103
0.116103
0.116103
0.116103
0.116103
0.116103
0.116103
0.116103
0.116103
0.116103
0.116103
0.116103
0.116103
0.116103
0.116103
0.116103
0.116103
0.116103
0.116103
0.116103
0.116103
0.116103
0.116103
0.116103
0.116103
0.116103
0.116103
0.116103
0.116103
0.116103
0.116103
0.116103
0.116103
0.116103
0.116103
0.116103
)
;

boundaryField
{
    sides
    {
        type            calculated;
        value           nonuniform List<scalar> 2(0.116103 1.16103);
    }
    empty
    {
        type            empty;
    }
}


// ************************************************************************* //
