/*--------------------------------*- C++ -*----------------------------------*\
| =========                 |                                                 |
| \\      /  F ield         | OpenFOAM: The Open Source CFD Toolbox           |
|  \\    /   O peration     | Version:  2312                                  |
|   \\  /    A nd           | Website:  www.openfoam.com                      |
|    \\/     M anipulation  |                                                 |
\*---------------------------------------------------------------------------*/
FoamFile
{
    version     2.0;
    format      ascii;
    arch        "LSB;label=32;scalar=64";
    class       volScalarField;
    location    "0.002";
    object      rho;
}
// * * * * * * * * * * * * * * * * * * * * * * * * * * * * * * * * * * * * * //

dimensions      [1 -3 0 0 0 0 0];

internalField   nonuniform List<scalar> 
100
(
1.15862
1.15862
1.15862
1.15862
1.15862
1.15862
1.15862
1.15862
1.15862
1.15862
1.15862
1.15862
1.15862
1.15862
1.15862
1.15862
1.15862
1.15862
1.15862
1.15862
1.15862
1.15862
1.15862
1.15862
1.15862
1.15862
1.15862
1.15862
1.15862
1.15862
1.15862
1.15862
1.15861
1.15858
1.15846
1.1581
1.1571
1.15469
1.14947
1.13941
1.12211
1.09538
1.05785
1.00936
0.950958
0.884563
0.812621
0.737804
0.662878
0.590722
0.524661
0.469684
0.435639
0.411698
0.381377
0.346425
0.311638
0.280717
0.254575
0.231175
0.206587
0.178481
0.150346
0.129928
0.120164
0.116944
0.116104
0.115912
0.115872
0.115864
0.115863
0.115862
0.115862
0.115862
0.115862
0.115862
0.115862
0.115862
0.115862
0.115862
0.115862
0.115862
0.115862
0.115862
0.115862
0.115862
0.115862
0.115862
0.115862
0.115862
0.115862
0.115862
0.115862
0.115862
0.115862
0.115862
0.115862
0.115862
0.115862
0.115862
)
;

boundaryField
{
    sides
    {
        type            calculated;
        value           nonuniform List<scalar> 2(0.115862 1.15862);
    }
    empty
    {
        type            empty;
    }
}


// ************************************************************************* //
