/*--------------------------------*- C++ -*----------------------------------*\
| =========                 |                                                 |
| \\      /  F ield         | OpenFOAM: The Open Source CFD Toolbox           |
|  \\    /   O peration     | Version:  2312                                  |
|   \\  /    A nd           | Website:  www.openfoam.com                      |
|    \\/     M anipulation  |                                                 |
\*---------------------------------------------------------------------------*/
FoamFile
{
    version     2.0;
    format      ascii;
    arch        "LSB;label=32;scalar=64";
    class       volScalarField;
    location    "0.002";
    object      rho;
}
// * * * * * * * * * * * * * * * * * * * * * * * * * * * * * * * * * * * * * //

dimensions      [1 -3 0 0 0 0 0];

internalField   nonuniform List<scalar> 
100
(
0.280635
0.280635
0.280635
0.280635
0.280635
0.280635
0.280635
0.280635
0.280635
0.280635
0.280635
0.280635
0.280635
0.280635
0.280635
0.280635
0.280635
0.280635
0.280635
0.280633
0.28063
0.280621
0.280602
0.280558
0.280468
0.280292
0.27997
0.279413
0.27851
0.277133
0.27515
0.272447
0.268943
0.264599
0.259422
0.253461
0.24679
0.239505
0.231709
0.223505
0.214994
0.206268
0.197413
0.188508
0.179629
0.170852
0.16226
0.153954
0.146077
0.138849
0.132643
0.12803
0.125414
0.123742
0.121539
0.11831
0.113769
0.107844
0.100748
0.0929404
0.0849958
0.0774584
0.0707351
0.0650575
0.0604963
0.0570007
0.0544397
0.0526351
0.0513812
0.0504471
0.049561
0.048377
0.0464642
0.0434211
0.0392391
0.0347169
0.031165
0.0292166
0.0284321
0.0281722
0.0280942
0.0280719
0.0280657
0.0280641
0.0280637
0.0280636
0.0280635
0.0280635
0.0280635
0.0280635
0.0280635
0.0280635
0.0280635
0.0280635
0.0280635
0.0280635
0.0280635
0.0280635
0.0280635
0.0280635
)
;

boundaryField
{
    sides
    {
        type            calculated;
        value           nonuniform List<scalar> 2(0.0280635 0.280635);
    }
    empty
    {
        type            empty;
    }
}


// ************************************************************************* //
