/*--------------------------------*- C++ -*----------------------------------*\
| =========                 |                                                 |
| \\      /  F ield         | OpenFOAM: The Open Source CFD Toolbox           |
|  \\    /   O peration     | Version:  2312                                  |
|   \\  /    A nd           | Website:  www.openfoam.com                      |
|    \\/     M anipulation  |                                                 |
\*---------------------------------------------------------------------------*/
FoamFile
{
    version     2.0;
    format      ascii;
    arch        "LSB;label=32;scalar=64";
    class       volScalarField;
    location    "0.002";
    object      T;
}
// * * * * * * * * * * * * * * * * * * * * * * * * * * * * * * * * * * * * * //

dimensions      [0 0 0 1 0 0 0];

internalField   nonuniform List<scalar> 
100
(
300
300
300
300
300
300
300
300
300
300
300
300
300
300
300
300
300
300
300
299.999
299.996
299.99
299.976
299.945
299.881
299.756
299.526
299.131
298.492
297.519
296.12
294.217
291.753
288.699
285.056
280.85
276.127
270.943
265.359
259.44
253.246
246.836
240.264
233.585
226.852
220.122
213.467
206.977
200.797
195.168
190.533
187.651
187.32
189.115
192.345
197.513
205.375
216.675
231.988
251.558
275.177
302.08
330.929
359.947
387.196
410.974
430.154
444.324
453.659
458.554
459.145
454.789
443.698
423.31
392.512
356.033
325.574
309.009
302.743
300.787
300.22
300.06
300.016
300.004
300.001
300
300
300
300
300
300
300
300
300
300
300
300
300
300
300
)
;

boundaryField
{
    sides
    {
        type            zeroGradient;
    }
    empty
    {
        type            empty;
    }
}


// ************************************************************************* //
