/*--------------------------------*- C++ -*----------------------------------*\
| =========                 |                                                 |
| \\      /  F ield         | OpenFOAM: The Open Source CFD Toolbox           |
|  \\    /   O peration     | Version:  2212                                  |
|   \\  /    A nd           | Website:  www.openfoam.com                      |
|    \\/     M anipulation  |                                                 |
\*---------------------------------------------------------------------------*/
FoamFile
{
    version     2.0;
    format      ascii;
    arch        "LSB;label=32;scalar=64";
    class       volScalarField;
    location    "0.002";
    object      thermo:psi;
}
// * * * * * * * * * * * * * * * * * * * * * * * * * * * * * * * * * * * * * //

dimensions      [0 -2 2 0 0 0 0];

internalField   nonuniform List<scalar> 
100
(
1.16103e-05
1.16103e-05
1.16103e-05
1.16103e-05
1.16103e-05
1.16103e-05
1.16103e-05
1.16103e-05
1.16103e-05
1.16103e-05
1.16103e-05
1.16103e-05
1.16103e-05
1.16103e-05
1.16103e-05
1.16103e-05
1.16103e-05
1.16103e-05
1.16103e-05
1.16103e-05
1.16103e-05
1.16103e-05
1.16103e-05
1.16103e-05
1.16103e-05
1.16103e-05
1.16103e-05
1.16103e-05
1.16103e-05
1.16103e-05
1.16103e-05
1.16103e-05
1.16103e-05
1.16103e-05
1.16103e-05
1.16103e-05
1.16103e-05
1.16103e-05
1.16103e-05
1.16103e-05
1.16103e-05
1.16154e-05
1.17103e-05
1.20667e-05
1.25959e-05
1.31546e-05
1.37355e-05
1.43601e-05
1.5052e-05
1.57263e-05
1.67189e-05
1.67162e-05
1.64134e-05
1.59455e-05
1.47472e-05
1.24655e-05
1.02549e-05
8.78466e-06
8.1934e-06
8.06463e-06
8.33741e-06
1.05093e-05
1.16058e-05
1.16103e-05
1.16103e-05
1.16103e-05
1.16103e-05
1.16103e-05
1.16103e-05
1.16103e-05
1.16103e-05
1.16103e-05
1.16103e-05
1.16103e-05
1.16103e-05
1.16103e-05
1.16103e-05
1.16103e-05
1.16103e-05
1.16103e-05
1.16103e-05
1.16103e-05
1.16103e-05
1.16103e-05
1.16103e-05
1.16103e-05
1.16103e-05
1.16103e-05
1.16103e-05
1.16103e-05
1.16103e-05
1.16103e-05
1.16103e-05
1.16103e-05
1.16103e-05
1.16103e-05
1.16103e-05
1.16103e-05
1.16103e-05
1.16103e-05
)
;

boundaryField
{
    sides
    {
        type            calculated;
        value           nonuniform List<scalar> 2(1.16103e-05 1.16103e-05);
    }
    empty
    {
        type            empty;
    }
}


// ************************************************************************* //
