/*--------------------------------*- C++ -*----------------------------------*\
| =========                 |                                                 |
| \\      /  F ield         | OpenFOAM: The Open Source CFD Toolbox           |
|  \\    /   O peration     | Version:  2212                                  |
|   \\  /    A nd           | Website:  www.openfoam.com                      |
|    \\/     M anipulation  |                                                 |
\*---------------------------------------------------------------------------*/
FoamFile
{
    version     2.0;
    format      ascii;
    arch        "LSB;label=32;scalar=64";
    class       volVectorField;
    location    "0.002";
    object      U;
}
// * * * * * * * * * * * * * * * * * * * * * * * * * * * * * * * * * * * * * //

dimensions      [0 1 -1 0 0 0 0];

internalField   nonuniform List<vector> 
100
(
(5.06826e-14 0 0)
(1.35477e-14 0 0)
(6.56834e-15 0 0)
(3.30415e-14 0 0)
(8.30194e-15 0 0)
(3.04985e-14 0 0)
(4.58379e-14 0 0)
(2.08974e-14 0 0)
(9.10395e-15 0 0)
(6.65784e-15 0 0)
(4.07183e-14 0 0)
(1.02553e-14 0 0)
(-3.88976e-14 0 0)
(-2.87293e-14 0 0)
(-5.80531e-15 0 0)
(5.37715e-14 0 0)
(4.63715e-14 0 0)
(1.07995e-14 0 0)
(-4.56831e-15 0 0)
(-3.76529e-14 0 0)
(-3.44744e-14 0 0)
(-8.50852e-15 0 0)
(2.50496e-14 0 0)
(9.6545e-15 0 0)
(1.95532e-14 0 0)
(1.54892e-14 0 0)
(4.94051e-15 0 0)
(-1.59677e-14 0 0)
(1.45591e-14 0 0)
(1.97309e-14 0 0)
(5.897e-14 0 0)
(5.59135e-14 0 0)
(5.69375e-15 0 0)
(-1.04116e-13 0 0)
(-1.81732e-13 0 0)
(-8.25061e-14 0 0)
(-2.18261e-14 0 0)
(-1.85614e-14 0 0)
(4.08459e-12 0 0)
(2.78311e-07 0 0)
(0.00174411 0 0)
(0.379075 0 0)
(7.41093 0 0)
(32.6093 0 0)
(67.6717 0 0)
(102.545 0 0)
(136.192 0 0)
(169.909 0 0)
(204.552 0 0)
(242.317 0 0)
(272.335 0 0)
(290.533 0 0)
(282.734 0 0)
(282.581 0 0)
(285.193 0 0)
(288.87 0 0)
(277.111 0 0)
(284.045 0 0)
(301.237 0 0)
(306.251 0 0)
(267.555 0 0)
(62.8322 0 0)
(0.228572 0 0)
(9.92995e-07 0 0)
(1.70717e-12 0 0)
(-4.05216e-14 0 0)
(-9.6071e-14 0 0)
(-2.81377e-14 0 0)
(-2.21202e-15 0 0)
(-1.81822e-14 0 0)
(1.40982e-15 0 0)
(-1.15649e-13 0 0)
(-7.8177e-14 0 0)
(-4.25868e-14 0 0)
(4.37617e-14 0 0)
(-2.15461e-16 0 0)
(-4.40545e-14 0 0)
(-3.11208e-14 0 0)
(1.08932e-15 0 0)
(5.73769e-14 0 0)
(8.58235e-14 0 0)
(2.77511e-14 0 0)
(-1.89504e-14 0 0)
(-1.4058e-14 0 0)
(1.31997e-14 0 0)
(1.79525e-16 0 0)
(-3.24135e-14 0 0)
(-5.1349e-14 0 0)
(-4.44985e-15 0 0)
(5.11529e-14 0 0)
(2.04008e-14 0 0)
(-2.99849e-14 0 0)
(2.31513e-15 0 0)
(9.41168e-14 0 0)
(5.50253e-14 0 0)
(1.54001e-14 0 0)
(-9.35512e-14 0 0)
(-5.14903e-14 0 0)
(-1.07496e-13 0 0)
(-1.95159e-13 0 0)
)
;

boundaryField
{
    sides
    {
        type            zeroGradient;
    }
    empty
    {
        type            empty;
    }
}


// ************************************************************************* //
