/*--------------------------------*- C++ -*----------------------------------*\
| =========                 |                                                 |
| \\      /  F ield         | OpenFOAM: The Open Source CFD Toolbox           |
|  \\    /   O peration     | Version:  2312                                  |
|   \\  /    A nd           | Website:  www.openfoam.com                      |
|    \\/     M anipulation  |                                                 |
\*---------------------------------------------------------------------------*/
FoamFile
{
    version     2.0;
    format      ascii;
    arch        "LSB;label=32;scalar=64";
    class       volVectorField;
    location    "0.002";
    object      U;
}
// * * * * * * * * * * * * * * * * * * * * * * * * * * * * * * * * * * * * * //

dimensions      [0 1 -1 0 0 0 0];

internalField   nonuniform List<vector> 
100
(
(7.75226e-13 0 0)
(7.06897e-13 0 0)
(6.11338e-13 0 0)
(9.57482e-13 0 0)
(3.60699e-12 0 0)
(1.89487e-11 0 0)
(1.04199e-10 0 0)
(5.58148e-10 0 0)
(2.84688e-09 0 0)
(1.3783e-08 0 0)
(6.33188e-08 0 0)
(2.76038e-07 0 0)
(1.14203e-06 0 0)
(4.48389e-06 0 0)
(1.67065e-05 0 0)
(5.90636e-05 0 0)
(0.000198102 0 0)
(0.000630215 0 0)
(0.00190107 0 0)
(0.00543576 0 0)
(0.0147265 0 0)
(0.0377842 0 0)
(0.0917651 0 0)
(0.210854 0 0)
(0.458169 0 0)
(0.9412 0 0)
(1.82785 0 0)
(3.35727 0 0)
(5.83797 0 0)
(9.62784 0 0)
(15.0967 0 0)
(22.5803 0 0)
(32.3381 0 0)
(44.528 0 0)
(59.2007 0 0)
(76.3118 0 0)
(95.7448 0 0)
(117.336 0 0)
(140.896 0 0)
(166.229 0 0)
(193.14 0 0)
(221.441 0 0)
(250.953 0 0)
(281.496 0 0)
(312.881 0 0)
(344.893 0 0)
(377.255 0 0)
(409.568 0 0)
(441.19 0 0)
(471.003 0 0)
(496.968 0 0)
(515.695 0 0)
(524.066 0 0)
(525.708 0 0)
(526.336 0 0)
(526.769 0 0)
(527.127 0 0)
(527.443 0 0)
(527.735 0 0)
(528.014 0 0)
(528.286 0 0)
(528.554 0 0)
(528.812 0 0)
(529.048 0 0)
(529.23 0 0)
(529.297 0 0)
(529.112 0 0)
(528.386 0 0)
(526.493 0 0)
(522.122 0 0)
(512.684 0 0)
(493.398 0 0)
(456.564 0 0)
(392.783 0 0)
(297.638 0 0)
(184.519 0 0)
(87.8106 0 0)
(32.5056 0 0)
(10.2627 0 0)
(3.00039 0 0)
(0.842784 0 0)
(0.229872 0 0)
(0.0609514 0 0)
(0.0156859 0 0)
(0.00390932 0 0)
(0.000941449 0 0)
(0.000218632 0 0)
(4.88718e-05 0 0)
(1.04983e-05 0 0)
(2.16398e-06 0 0)
(4.27446e-07 0 0)
(8.08106e-08 0 0)
(1.46056e-08 0 0)
(2.52096e-09 0 0)
(4.15083e-10 0 0)
(6.52262e-11 0 0)
(9.76502e-12 0 0)
(1.47434e-12 0 0)
(3.37373e-13 0 0)
(2.00772e-13 0 0)
)
;

boundaryField
{
    sides
    {
        type            zeroGradient;
    }
    empty
    {
        type            empty;
    }
}


// ************************************************************************* //
