/*--------------------------------*- C++ -*----------------------------------*\
| =========                 |                                                 |
| \\      /  F ield         | OpenFOAM: The Open Source CFD Toolbox           |
|  \\    /   O peration     | Version:  2212                                  |
|   \\  /    A nd           | Website:  www.openfoam.com                      |
|    \\/     M anipulation  |                                                 |
\*---------------------------------------------------------------------------*/
FoamFile
{
    version     2.0;
    format      ascii;
    arch        "LSB;label=32;scalar=64";
    class       volVectorField;
    location    "0.002";
    object      U;
}
// * * * * * * * * * * * * * * * * * * * * * * * * * * * * * * * * * * * * * //

dimensions      [0 1 -1 0 0 0 0];

internalField   nonuniform List<vector> 
100
(
(8.47195e-14 0 0)
(1.02408e-13 0 0)
(7.93273e-14 0 0)
(3.55817e-14 0 0)
(-4.67911e-14 0 0)
(-5.33984e-14 0 0)
(5.71844e-16 0 0)
(2.48683e-14 0 0)
(1.2175e-14 0 0)
(-3.11753e-14 0 0)
(-5.4835e-14 0 0)
(-3.56718e-14 0 0)
(-3.57822e-14 0 0)
(1.41999e-14 0 0)
(2.71787e-14 0 0)
(1.08433e-14 0 0)
(-8.32441e-15 0 0)
(-2.81365e-14 0 0)
(-1.655e-15 0 0)
(1.94391e-14 0 0)
(3.43439e-14 0 0)
(7.04339e-13 0 0)
(9.29367e-12 0 0)
(1.08406e-10 0 0)
(1.12833e-09 0 0)
(1.05158e-08 0 0)
(8.79225e-08 0 0)
(6.60476e-07 0 0)
(4.4631e-06 0 0)
(2.71532e-05 0 0)
(0.000148818 0 0)
(0.000734904 0 0)
(0.00326959 0 0)
(0.0130989 0 0)
(0.0472167 0 0)
(0.152976 0 0)
(0.444995 0 0)
(1.16156 0 0)
(2.72246 0 0)
(5.74539 0 0)
(10.9777 0 0)
(19.1485 0 0)
(30.8103 0 0)
(46.2486 0 0)
(65.4858 0 0)
(88.344 0 0)
(114.513 0 0)
(143.583 0 0)
(175.003 0 0)
(207.907 0 0)
(240.617 0 0)
(269.102 0 0)
(282.936 0 0)
(284.631 0 0)
(284.76 0 0)
(284.345 0 0)
(283.049 0 0)
(279.783 0 0)
(272.079 0 0)
(255.251 0 0)
(222.374 0 0)
(168.218 0 0)
(99.6674 0 0)
(41.6664 0 0)
(12.4238 0 0)
(3.01205 0 0)
(0.654411 0 0)
(0.131432 0 0)
(0.0244998 0 0)
(0.00422734 0 0)
(0.000672661 0 0)
(9.83488e-05 0 0)
(1.31672e-05 0 0)
(1.60889e-06 0 0)
(1.78823e-07 0 0)
(1.80184e-08 0 0)
(1.64025e-09 0 0)
(1.3446e-10 0 0)
(9.9403e-12 0 0)
(7.13594e-13 0 0)
(8.33922e-14 0 0)
(-2.75907e-15 0 0)
(-3.13792e-14 0 0)
(-5.75958e-14 0 0)
(-1.18953e-13 0 0)
(-1.52553e-13 0 0)
(-1.70161e-13 0 0)
(-1.88989e-13 0 0)
(-1.73928e-13 0 0)
(-1.1793e-13 0 0)
(-1.74479e-13 0 0)
(-1.51977e-13 0 0)
(-1.20967e-13 0 0)
(-1.75268e-13 0 0)
(-1.69871e-13 0 0)
(-1.11658e-13 0 0)
(-8.69141e-14 0 0)
(-5.53564e-14 0 0)
(-4.4211e-14 0 0)
(-6.96647e-14 0 0)
)
;

boundaryField
{
    sides
    {
        type            zeroGradient;
    }
    empty
    {
        type            empty;
    }
}


// ************************************************************************* //
