/*--------------------------------*- C++ -*----------------------------------*\
| =========                 |                                                 |
| \\      /  F ield         | OpenFOAM: The Open Source CFD Toolbox           |
|  \\    /   O peration     | Version:  2312                                  |
|   \\  /    A nd           | Website:  www.openfoam.com                      |
|    \\/     M anipulation  |                                                 |
\*---------------------------------------------------------------------------*/
FoamFile
{
    version     2.0;
    format      ascii;
    arch        "LSB;label=32;scalar=64";
    class       volVectorField;
    location    "0.002";
    object      U;
}
// * * * * * * * * * * * * * * * * * * * * * * * * * * * * * * * * * * * * * //

dimensions      [0 1 -1 0 0 0 0];

internalField   nonuniform List<vector> 
100
(
(7.7833e-15 0 0)
(1.43235e-15 0 0)
(6.58419e-14 0 0)
(8.45845e-14 0 0)
(4.60626e-14 0 0)
(-2.83202e-15 0 0)
(-6.94781e-14 0 0)
(-6.28222e-14 0 0)
(-4.25328e-14 0 0)
(-6.93065e-14 0 0)
(-1.2853e-13 0 0)
(-9.39217e-14 0 0)
(-8.21552e-14 0 0)
(-6.26864e-14 0 0)
(-8.09988e-14 0 0)
(-3.7927e-14 0 0)
(-2.80784e-14 0 0)
(-1.80349e-14 0 0)
(5.65362e-15 0 0)
(3.2081e-14 0 0)
(1.09707e-13 0 0)
(1.23443e-12 0 0)
(1.4557e-11 0 0)
(1.602e-10 0 0)
(1.58486e-09 0 0)
(1.41074e-08 0 0)
(1.13145e-07 0 0)
(8.18638e-07 0 0)
(5.3484e-06 0 0)
(3.15726e-05 0 0)
(0.00016846 0 0)
(0.000812433 0 0)
(0.00354029 0 0)
(0.0139305 0 0)
(0.0494475 0 0)
(0.158145 0 0)
(0.455177 0 0)
(1.17819 0 0)
(2.74395 0 0)
(5.76478 0 0)
(10.9828 0 0)
(19.1265 0 0)
(30.7541 0 0)
(46.1621 0 0)
(65.3849 0 0)
(88.2543 0 0)
(114.467 0 0)
(143.614 0 0)
(175.148 0 0)
(208.206 0 0)
(241.122 0 0)
(269.895 0 0)
(284.005 0 0)
(285.737 0 0)
(285.858 0 0)
(285.425 0 0)
(284.074 0 0)
(280.675 0 0)
(272.739 0 0)
(255.636 0 0)
(222.667 0 0)
(168.915 0 0)
(101.092 0 0)
(43.1519 0 0)
(13.2123 0 0)
(3.28237 0 0)
(0.728758 0 0)
(0.149425 0 0)
(0.0284479 0 0)
(0.00502035 0 0)
(0.00081882 0 0)
(0.000123058 0 0)
(1.69913e-05 0 0)
(2.14921e-06 0 0)
(2.48304e-07 0 0)
(2.61229e-08 0 0)
(2.49476e-09 0 0)
(2.15583e-10 0 0)
(1.68418e-11 0 0)
(1.16513e-12 0 0)
(8.88766e-14 0 0)
(-1.84885e-14 0 0)
(7.13053e-15 0 0)
(-7.88127e-16 0 0)
(6.06023e-15 0 0)
(2.5828e-14 0 0)
(1.48895e-15 0 0)
(2.09099e-14 0 0)
(6.89368e-14 0 0)
(1.05091e-13 0 0)
(1.51521e-13 0 0)
(1.05487e-13 0 0)
(7.73794e-14 0 0)
(7.8277e-14 0 0)
(2.74316e-14 0 0)
(-2.1999e-14 0 0)
(-4.70653e-15 0 0)
(-2.38093e-14 0 0)
(3.21104e-14 0 0)
(-1.33011e-14 0 0)
)
;

boundaryField
{
    sides
    {
        type            zeroGradient;
    }
    empty
    {
        type            empty;
    }
}


// ************************************************************************* //
