/*--------------------------------*- C++ -*----------------------------------*\
| =========                 |                                                 |
| \\      /  F ield         | OpenFOAM: The Open Source CFD Toolbox           |
|  \\    /   O peration     | Version:  2312                                  |
|   \\  /    A nd           | Website:  www.openfoam.com                      |
|    \\/     M anipulation  |                                                 |
\*---------------------------------------------------------------------------*/
FoamFile
{
    version     2.0;
    format      ascii;
    arch        "LSB;label=32;scalar=64";
    class       volScalarField;
    location    "0.002";
    object      p;
}
// * * * * * * * * * * * * * * * * * * * * * * * * * * * * * * * * * * * * * //

dimensions      [1 -1 -2 0 0 0 0];

internalField   nonuniform List<scalar> 
100
(
413711
413711
413711
413711
413711
413711
413711
413711
413711
413711
413711
413711
413711
413711
413711
413711
413711
413711
413710
413706
413697
413674
413621
413505
413263
412793
411934
410459
408083
404490
399375
392499
383736
373093
360703
346800
331680
315662
299065
282181
265270
248554
232224
216440
201341
187051
173691
161387
150281
140538
132340
125851
121140
118084
116344
115488
115112
114970
114935
114947
114983
115030
115083
115140
115200
115259
115315
115359
115348
115091
113956
110411
102088
87692.9
70018.7
55154.1
46648.3
43114.2
41906.1
41529.3
41416.7
41383.9
41374.6
41372.1
41371.4
41371.2
41371.2
41371.1
41371.1
41371.1
41371.1
41371.1
41371.1
41371.1
41371.1
41371.1
41371.1
41371.1
41371.1
41371.1
)
;

boundaryField
{
    sides
    {
        type            zeroGradient;
    }
    empty
    {
        type            empty;
    }
}


// ************************************************************************* //
