/*--------------------------------*- C++ -*----------------------------------*\
| =========                 |                                                 |
| \\      /  F ield         | OpenFOAM: The Open Source CFD Toolbox           |
|  \\    /   O peration     | Version:  2312                                  |
|   \\  /    A nd           | Website:  www.openfoam.com                      |
|    \\/     M anipulation  |                                                 |
\*---------------------------------------------------------------------------*/
FoamFile
{
    version     2.0;
    format      ascii;
    arch        "LSB;label=32;scalar=64";
    class       volScalarField;
    location    "0.002";
    object      rho;
}
// * * * * * * * * * * * * * * * * * * * * * * * * * * * * * * * * * * * * * //

dimensions      [1 -3 0 0 0 0 0];

internalField   nonuniform List<scalar> 
100
(
1.16102
1.16102
1.16102
1.16102
1.16102
1.16102
1.16102
1.16102
1.16102
1.16102
1.16102
1.16102
1.16102
1.16102
1.16102
1.16102
1.16102
1.16102
1.16102
1.16101
1.161
1.16096
1.16087
1.16067
1.16027
1.15947
1.15802
1.15553
1.1515
1.14538
1.13662
1.12474
1.10946
1.09068
1.06849
1.04318
1.01514
0.984806
0.952665
0.919169
0.884745
0.849784
0.814641
0.779646
0.745114
0.711362
0.678728
0.647595
0.618411
0.591695
0.567992
0.54771
0.530788
0.516277
0.502142
0.485997
0.465793
0.440723
0.411402
0.37956
0.347431
0.31712
0.29019
0.267516
0.249346
0.235463
0.225352
0.218344
0.213697
0.210553
0.207673
0.202947
0.193377
0.176913
0.155745
0.136485
0.124394
0.11895
0.116993
0.116367
0.116179
0.116124
0.116108
0.116104
0.116102
0.116102
0.116102
0.116102
0.116102
0.116102
0.116102
0.116102
0.116102
0.116102
0.116102
0.116102
0.116102
0.116102
0.116102
0.116102
)
;

boundaryField
{
    sides
    {
        type            zeroGradient;
    }
    empty
    {
        type            empty;
    }
}


// ************************************************************************* //
