/*--------------------------------*- C++ -*----------------------------------*\
| =========                 |                                                 |
| \\      /  F ield         | OpenFOAM: The Open Source CFD Toolbox           |
|  \\    /   O peration     | Version:  2312                                  |
|   \\  /    A nd           | Website:  www.openfoam.com                      |
|    \\/     M anipulation  |                                                 |
\*---------------------------------------------------------------------------*/
FoamFile
{
    version     2.0;
    format      ascii;
    arch        "LSB;label=32;scalar=64";
    class       volScalarField;
    location    "0.002";
    object      T;
}
// * * * * * * * * * * * * * * * * * * * * * * * * * * * * * * * * * * * * * //

dimensions      [0 0 0 1 0 0 0];

internalField   nonuniform List<scalar> 
100
(
300
300
300
300
300
300
300
300
300
300
300
300
300
300
300
300
300
300
299.999
299.998
299.996
299.989
299.974
299.94
299.87
299.734
299.484
299.056
298.366
297.319
295.822
293.798
291.194
287.994
284.212
279.887
275.08
269.858
264.295
258.462
252.425
246.25
239.996
233.724
227.495
221.377
215.449
209.811
204.593
199.968
196.161
193.451
192.145
192.562
195.065
200.063
208.061
219.625
235.206
254.966
278.63
305.386
333.881
362.361
388.967
412.113
430.813
444.809
454.437
460.195
461.976
458.03
444.46
417.319
378.499
340.216
315.719
305.155
301.566
300.46
300.132
300.037
300.01
300.003
300.001
300
300
300
300
300
300
300
300
300
300
300
300
300
300
300
)
;

boundaryField
{
    sides
    {
        type            zeroGradient;
    }
    empty
    {
        type            empty;
    }
}


// ************************************************************************* //
