/*--------------------------------*- C++ -*----------------------------------*\
| =========                 |                                                 |
| \\      /  F ield         | OpenFOAM: The Open Source CFD Toolbox           |
|  \\    /   O peration     | Version:  2312                                  |
|   \\  /    A nd           | Website:  www.openfoam.com                      |
|    \\/     M anipulation  |                                                 |
\*---------------------------------------------------------------------------*/
FoamFile
{
    version     2.0;
    format      ascii;
    arch        "LSB;label=32;scalar=64";
    class       volScalarField;
    location    "0.002";
    object      thermo:e;
}
// * * * * * * * * * * * * * * * * * * * * * * * * * * * * * * * * * * * * * //

dimensions      [0 2 -2 0 0 0 0];

internalField   nonuniform List<scalar> 
100
(
534450
534450
534450
534450
534450
534450
534450
534450
534450
534450
534450
534450
534450
534450
534450
534450
534450
534450
534449
534447
534442
534431
534403
534343
534218
533976
533531
532769
531539
529673
527007
523400
518763
513062
506323
498619
490054
480752
470842
460449
449696
438694
427553
416380
405283
394383
383823
373779
364483
356242
349461
344633
342306
343049
347509
356412
370661
391262
419019
454222
496378
544044
594809
645547
692945
734179
767493
792428
809579
819837
823011
815981
791805
743454
674296
606095
562454
543633
537240
535270
534686
534516
534468
534455
534451
534450
534450
534450
534450
534450
534450
534450
534450
534450
534450
534450
534450
534450
534450
534450
)
;

boundaryField
{
    sides
    {
        type            zeroGradient;
    }
    empty
    {
        type            empty;
    }
}


// ************************************************************************* //
