/*--------------------------------*- C++ -*----------------------------------*\
| =========                 |                                                 |
| \\      /  F ield         | OpenFOAM: The Open Source CFD Toolbox           |
|  \\    /   O peration     | Version:  2312                                  |
|   \\  /    A nd           | Website:  www.openfoam.com                      |
|    \\/     M anipulation  |                                                 |
\*---------------------------------------------------------------------------*/
FoamFile
{
    version     2.0;
    format      ascii;
    arch        "LSB;label=32;scalar=64";
    class       volVectorField;
    location    "0.002";
    object      U;
}
// * * * * * * * * * * * * * * * * * * * * * * * * * * * * * * * * * * * * * //

dimensions      [0 1 -1 0 0 0 0];

internalField   nonuniform List<vector> 
100
(
(-5.43063e-13 0 0)
(-4.67771e-13 0 0)
(-2.9555e-13 0 0)
(3.00814e-13 0 0)
(3.37893e-12 0 0)
(2.13981e-11 0 0)
(1.21463e-10 0 0)
(6.49629e-10 0 0)
(3.29542e-09 0 0)
(1.58658e-08 0 0)
(7.25037e-08 0 0)
(3.1452e-07 0 0)
(1.29524e-06 0 0)
(5.06359e-06 0 0)
(1.87909e-05 0 0)
(6.61852e-05 0 0)
(0.000221217 0 0)
(0.000701476 0 0)
(0.00210965 0 0)
(0.00601519 0 0)
(0.0162534 0 0)
(0.0415989 0 0)
(0.100795 0 0)
(0.23109 0 0)
(0.501075 0 0)
(1.02721 0 0)
(1.99074 0 0)
(3.64863 0 0)
(6.3301 0 0)
(10.4131 0 0)
(16.2816 0 0)
(24.2736 0 0)
(34.6356 0 0)
(47.4958 0 0)
(62.8621 0 0)
(80.6393 0 0)
(100.657 0 0)
(122.702 0 0)
(146.537 0 0)
(171.924 0 0)
(198.63 0 0)
(226.429 0 0)
(255.1 0 0)
(284.414 0 0)
(314.125 0 0)
(343.941 0 0)
(373.503 0 0)
(402.339 0 0)
(429.821 0 0)
(455.133 0 0)
(477.299 0 0)
(495.354 0 0)
(508.697 0 0)
(517.457 0 0)
(522.535 0 0)
(525.192 0 0)
(526.551 0 0)
(527.29 0 0)
(527.759 0 0)
(528.117 0 0)
(528.434 0 0)
(528.738 0 0)
(529.041 0 0)
(529.347 0 0)
(529.656 0 0)
(529.962 0 0)
(530.249 0 0)
(530.461 0 0)
(530.327 0 0)
(528.689 0 0)
(521.839 0 0)
(501.104 0 0)
(452.938 0 0)
(366.615 0 0)
(249.084 0 0)
(133.233 0 0)
(55.294 0 0)
(19.0357 0 0)
(5.93582 0 0)
(1.76379 0 0)
(0.508482 0 0)
(0.142747 0 0)
(0.0389835 0 0)
(0.0103328 0 0)
(0.00265159 0 0)
(0.00065726 0 0)
(0.000157036 0 0)
(3.60971e-05 0 0)
(7.96948e-06 0 0)
(1.68741e-06 0 0)
(3.42186e-07 0 0)
(6.6378e-08 0 0)
(1.23033e-08 0 0)
(2.17679e-09 0 0)
(3.67176e-10 0 0)
(5.88923e-11 0 0)
(8.91029e-12 0 0)
(1.09084e-12 0 0)
(-6.24108e-14 0 0)
(-2.1992e-13 0 0)
)
;

boundaryField
{
    sides
    {
        type            zeroGradient;
    }
    empty
    {
        type            empty;
    }
}


// ************************************************************************* //
