/*--------------------------------*- C++ -*----------------------------------*\
| =========                 |                                                 |
| \\      /  F ield         | OpenFOAM: The Open Source CFD Toolbox           |
|  \\    /   O peration     | Version:  2212                                  |
|   \\  /    A nd           | Website:  www.openfoam.com                      |
|    \\/     M anipulation  |                                                 |
\*---------------------------------------------------------------------------*/
FoamFile
{
    version     2.0;
    format      ascii;
    arch        "LSB;label=32;scalar=64";
    class       volVectorField;
    location    "0.002";
    object      U;
}
// * * * * * * * * * * * * * * * * * * * * * * * * * * * * * * * * * * * * * //

dimensions      [0 1 -1 0 0 0 0];

internalField   nonuniform List<vector> 
100
(
(-2.1263e-13 0 0)
(-2.45817e-13 0 0)
(-1.61315e-13 0 0)
(-9.34327e-14 0 0)
(-6.17776e-14 0 0)
(-6.93596e-14 0 0)
(-3.30468e-14 0 0)
(3.84066e-14 0 0)
(6.5197e-14 0 0)
(8.56961e-14 0 0)
(1.16837e-13 0 0)
(1.37563e-13 0 0)
(1.02457e-13 0 0)
(1.20405e-13 0 0)
(9.16313e-14 0 0)
(1.35126e-13 0 0)
(9.38201e-14 0 0)
(5.44361e-14 0 0)
(-6.07188e-14 0 0)
(-1.04101e-13 0 0)
(-3.29762e-14 0 0)
(4.49976e-13 0 0)
(7.23673e-12 0 0)
(8.79141e-11 0 0)
(9.44167e-10 0 0)
(9.05574e-09 0 0)
(7.77559e-08 0 0)
(5.98658e-07 0 0)
(4.13839e-06 0 0)
(2.57111e-05 0 0)
(0.000143657 0 0)
(0.000722077 0 0)
(0.00326485 0 0)
(0.0132734 0 0)
(0.0484849 0 0)
(0.15896 0 0)
(0.46726 0 0)
(1.23065 0 0)
(2.90552 0 0)
(6.16464 0 0)
(11.8149 0 0)
(20.6178 0 0)
(33.0952 0 0)
(49.4208 0 0)
(69.4344 0 0)
(92.7312 0 0)
(118.75 0 0)
(146.806 0 0)
(176.03 0 0)
(205.197 0 0)
(232.458 0 0)
(255.244 0 0)
(271.132 0 0)
(279.815 0 0)
(283.483 0 0)
(284.744 0 0)
(284.682 0 0)
(282.522 0 0)
(274.192 0 0)
(251.436 0 0)
(205.83 0 0)
(138.835 0 0)
(70.1792 0 0)
(25.4916 0 0)
(7.20096 0 0)
(1.7646 0 0)
(0.395407 0 0)
(0.0820298 0 0)
(0.0157397 0 0)
(0.00278245 0 0)
(0.000451339 0 0)
(6.69268e-05 0 0)
(9.04093e-06 0 0)
(1.10893e-06 0 0)
(1.23103e-07 0 0)
(1.23276e-08 0 0)
(1.10988e-09 0 0)
(8.95425e-11 0 0)
(6.47241e-12 0 0)
(4.1072e-13 0 0)
(2.44165e-14 0 0)
(-7.61923e-15 0 0)
(7.58644e-15 0 0)
(2.80931e-14 0 0)
(-2.2506e-14 0 0)
(-2.45434e-14 0 0)
(-1.74112e-14 0 0)
(-1.84344e-14 0 0)
(2.40112e-14 0 0)
(5.35373e-14 0 0)
(1.81642e-14 0 0)
(-2.40749e-14 0 0)
(-6.06512e-15 0 0)
(7.70839e-14 0 0)
(2.25677e-14 0 0)
(4.5422e-14 0 0)
(-1.42284e-14 0 0)
(-1.33414e-14 0 0)
(1.8332e-14 0 0)
(-3.61841e-14 0 0)
)
;

boundaryField
{
    sides
    {
        type            zeroGradient;
    }
    empty
    {
        type            empty;
    }
}


// ************************************************************************* //
