/*--------------------------------*- C++ -*----------------------------------*\
| =========                 |                                                 |
| \\      /  F ield         | OpenFOAM: The Open Source CFD Toolbox           |
|  \\    /   O peration     | Version:  2312                                  |
|   \\  /    A nd           | Website:  www.openfoam.com                      |
|    \\/     M anipulation  |                                                 |
\*---------------------------------------------------------------------------*/
FoamFile
{
    version     2.0;
    format      ascii;
    arch        "LSB;label=32;scalar=64";
    class       volVectorField;
    location    "0.002";
    object      U;
}
// * * * * * * * * * * * * * * * * * * * * * * * * * * * * * * * * * * * * * //

dimensions      [0 1 -1 0 0 0 0];

internalField   nonuniform List<vector> 
100
(
(1.80015e-14 0 0)
(1.52134e-14 0 0)
(5.56325e-14 0 0)
(8.22101e-14 0 0)
(9.33493e-14 0 0)
(8.12088e-14 0 0)
(4.742e-14 0 0)
(6.40606e-14 0 0)
(3.55889e-14 0 0)
(-1.65188e-14 0 0)
(-7.55426e-14 0 0)
(-3.37632e-14 0 0)
(-1.51495e-15 0 0)
(3.22198e-14 0 0)
(2.43245e-14 0 0)
(-3.63367e-15 0 0)
(3.7969e-14 0 0)
(1.94434e-14 0 0)
(-2.58793e-14 0 0)
(2.00519e-15 0 0)
(4.26582e-14 0 0)
(4.36016e-13 0 0)
(5.9567e-12 0 0)
(7.69001e-11 0 0)
(8.68974e-10 0 0)
(8.65108e-09 0 0)
(7.63006e-08 0 0)
(5.9856e-07 0 0)
(4.18969e-06 0 0)
(2.62308e-05 0 0)
(0.000147159 0 0)
(0.0007407 0 0)
(0.00334718 0 0)
(0.0135824 0 0)
(0.0494786 0 0)
(0.161706 0 0)
(0.473786 0 0)
(1.244 0 0)
(2.92912 0 0)
(6.20122 0 0)
(11.8659 0 0)
(20.6848 0 0)
(33.1817 0 0)
(49.533 0 0)
(69.5796 0 0)
(92.9146 0 0)
(118.972 0 0)
(147.06 0 0)
(176.306 0 0)
(205.484 0 0)
(232.752 0 0)
(255.555 0 0)
(271.481 0 0)
(280.201 0 0)
(283.876 0 0)
(285.117 0 0)
(285.004 0 0)
(282.72 0 0)
(274.233 0 0)
(251.586 0 0)
(206.707 0 0)
(140.835 0 0)
(72.5965 0 0)
(27.0599 0 0)
(7.81721 0 0)
(1.94524 0 0)
(0.440202 0 0)
(0.0918483 0 0)
(0.0176591 0 0)
(0.00311578 0 0)
(0.000502212 0 0)
(7.362e-05 0 0)
(9.77238e-06 0 0)
(1.16942e-06 0 0)
(1.25559e-07 0 0)
(1.20325e-08 0 0)
(1.02306e-09 0 0)
(7.66218e-11 0 0)
(4.98832e-12 0 0)
(2.7658e-13 0 0)
(4.8281e-14 0 0)
(4.10707e-14 0 0)
(-1.22725e-14 0 0)
(-4.76594e-14 0 0)
(7.30013e-15 0 0)
(6.5417e-14 0 0)
(6.44132e-15 0 0)
(-1.22593e-14 0 0)
(-6.80051e-14 0 0)
(7.15721e-14 0 0)
(8.40658e-14 0 0)
(-2.5407e-14 0 0)
(-7.70862e-14 0 0)
(7.28884e-15 0 0)
(8.7813e-14 0 0)
(1.56147e-13 0 0)
(1.06915e-13 0 0)
(3.00838e-14 0 0)
(1.39311e-14 0 0)
(-2.94486e-14 0 0)
)
;

boundaryField
{
    sides
    {
        type            zeroGradient;
    }
    empty
    {
        type            empty;
    }
}


// ************************************************************************* //
