/*--------------------------------*- C++ -*----------------------------------*\
| =========                 |                                                 |
| \\      /  F ield         | OpenFOAM: The Open Source CFD Toolbox           |
|  \\    /   O peration     | Version:  2212                                  |
|   \\  /    A nd           | Website:  www.openfoam.com                      |
|    \\/     M anipulation  |                                                 |
\*---------------------------------------------------------------------------*/
FoamFile
{
    version     2.0;
    format      ascii;
    arch        "LSB;label=32;scalar=64";
    class       volScalarField;
    location    "0.007";
    object      rho;
}
// * * * * * * * * * * * * * * * * * * * * * * * * * * * * * * * * * * * * * //

dimensions      [1 -3 0 0 0 0 0];

internalField   nonuniform List<scalar> 10(1.00461 1.00133 0.943288 0.704163 0.420457 0.347002 0.460878 0.437992 0.208622 0.129016);

boundaryField
{
    sides
    {
        type            calculated;
        value           nonuniform List<scalar> 2(0.126842 1.00463);
    }
    empty
    {
        type            empty;
    }
}


// ************************************************************************* //
