/*--------------------------------*- C++ -*----------------------------------*\
| =========                 |                                                 |
| \\      /  F ield         | OpenFOAM: The Open Source CFD Toolbox           |
|  \\    /   O peration     | Version:  2312                                  |
|   \\  /    A nd           | Website:  www.openfoam.com                      |
|    \\/     M anipulation  |                                                 |
\*---------------------------------------------------------------------------*/
FoamFile
{
    version     2.0;
    format      ascii;
    arch        "LSB;label=32;scalar=64";
    class       volScalarField;
    location    "0.009";
    object      p;
}
// * * * * * * * * * * * * * * * * * * * * * * * * * * * * * * * * * * * * * //

dimensions      [1 -1 -2 0 0 0 0];

internalField   nonuniform List<scalar> 
100
(
289928
285219
280207
275214
270269
265375
260535
255752
251026
246361
241756
237213
232733
228317
223966
219680
215460
211306
207218
203197
199242
195354
191533
187778
184091
180471
176918
173432
170015
166666
163387
160178
157041
153978
150990
148081
145253
142510
139856
137297
134838
132486
130248
128133
126150
124308
122615
121081
119711
118511
117479
116615
115907
115346
114913
114590
114358
114197
114090
114023
113982
113961
113951
113949
113952
113957
113963
113970
113977
113984
113991
113999
114008
114019
114037
114066
114114
114195
114324
114520
114799
115169
115628
116155
116716
117268
117770
118193
118522
118759
118915
119011
119063
119088
119098
119099
119096
119091
119085
119076
)
;

boundaryField
{
    sides
    {
        type            zeroGradient;
    }
    empty
    {
        type            empty;
    }
}


// ************************************************************************* //
