/*--------------------------------*- C++ -*----------------------------------*\
| =========                 |                                                 |
| \\      /  F ield         | OpenFOAM: The Open Source CFD Toolbox           |
|  \\    /   O peration     | Version:  2312                                  |
|   \\  /    A nd           | Website:  www.openfoam.com                      |
|    \\/     M anipulation  |                                                 |
\*---------------------------------------------------------------------------*/
FoamFile
{
    version     2.0;
    format      ascii;
    arch        "LSB;label=32;scalar=64";
    class       volScalarField;
    location    "0.009";
    object      rho;
}
// * * * * * * * * * * * * * * * * * * * * * * * * * * * * * * * * * * * * * //

dimensions      [1 -3 0 0 0 0 0];

internalField   nonuniform List<scalar> 
100
(
0.939864
0.930767
0.921011
0.911219
0.901446
0.8917
0.881987
0.872312
0.86268
0.853094
0.843558
0.834078
0.824654
0.815292
0.805993
0.796761
0.787597
0.778505
0.769485
0.76054
0.751672
0.742884
0.734175
0.72555
0.717009
0.708554
0.700189
0.691916
0.683737
0.675657
0.66768
0.65981
0.652054
0.644417
0.63691
0.629539
0.622318
0.615258
0.608373
0.601683
0.595205
0.588962
0.582979
0.577283
0.571904
0.566872
0.562218
0.557971
0.554154
0.550785
0.54787
0.545404
0.543368
0.541728
0.540442
0.539457
0.538719
0.538175
0.537777
0.537482
0.537258
0.537079
0.536925
0.536784
0.536645
0.536502
0.536349
0.536183
0.535998
0.535792
0.535558
0.535289
0.534979
0.534616
0.53419
0.533688
0.533094
0.532391
0.531556
0.530547
0.529295
0.527688
0.525549
0.522644
0.518691
0.513399
0.506516
0.497872
0.487408
0.475184
0.461365
0.446203
0.430004
0.413108
0.395858
0.378593
0.36164
0.345369
0.330431
0.31881
)
;

boundaryField
{
    sides
    {
        type            zeroGradient;
    }
    empty
    {
        type            empty;
    }
}


// ************************************************************************* //
