/*--------------------------------*- C++ -*----------------------------------*\
| =========                 |                                                 |
| \\      /  F ield         | OpenFOAM: The Open Source CFD Toolbox           |
|  \\    /   O peration     | Version:  2312                                  |
|   \\  /    A nd           | Website:  www.openfoam.com                      |
|    \\/     M anipulation  |                                                 |
\*---------------------------------------------------------------------------*/
FoamFile
{
    version     2.0;
    format      ascii;
    arch        "LSB;label=32;scalar=64";
    class       volScalarField;
    location    "0.009";
    object      T;
}
// * * * * * * * * * * * * * * * * * * * * * * * * * * * * * * * * * * * * * //

dimensions      [0 0 0 1 0 0 0];

internalField   nonuniform List<scalar> 
100
(
259.71
257.989
256.14
254.279
252.417
250.556
248.695
246.837
244.982
243.13
241.282
239.439
237.602
235.77
233.945
232.127
230.317
228.514
226.72
224.935
223.159
221.393
219.637
217.892
216.158
214.436
212.725
211.028
209.344
207.675
206.021
204.384
202.765
201.166
199.588
198.034
196.506
195.007
193.542
192.113
190.726
189.385
188.097
186.869
185.707
184.619
183.613
182.695
181.873
181.15
180.529
180.01
179.59
179.26
179.013
178.836
178.718
178.647
178.612
178.604
178.615
178.641
178.677
178.721
178.771
178.827
178.887
178.954
179.026
179.106
179.196
179.298
179.416
179.556
179.726
179.941
180.219
180.584
181.073
181.728
182.601
183.748
185.231
187.109
189.446
192.304
195.752
199.866
204.725
210.41
216.998
224.552
233.114
242.7
253.296
264.85
277.258
290.308
303.416
314.454
)
;

boundaryField
{
    sides
    {
        type            zeroGradient;
    }
    empty
    {
        type            empty;
    }
}


// ************************************************************************* //
