/*--------------------------------*- C++ -*----------------------------------*\
| =========                 |                                                 |
| \\      /  F ield         | OpenFOAM: The Open Source CFD Toolbox           |
|  \\    /   O peration     | Version:  2312                                  |
|   \\  /    A nd           | Website:  www.openfoam.com                      |
|    \\/     M anipulation  |                                                 |
\*---------------------------------------------------------------------------*/
FoamFile
{
    version     2.0;
    format      ascii;
    arch        "LSB;label=32;scalar=64";
    class       volScalarField;
    location    "0.009";
    object      thermo:e;
}
// * * * * * * * * * * * * * * * * * * * * * * * * * * * * * * * * * * * * * //

dimensions      [0 2 -2 0 0 0 0];

internalField   nonuniform List<scalar> 
100
(
446182
443225
440048
436852
433653
430455
427259
424066
420878
417697
414522
411356
408200
405053
401918
398795
395684
392588
389506
386439
383388
380354
377337
374339
371359
368400
365462
362546
359653
356785
353944
351132
348350
345603
342892
340222
337597
335023
332505
330050
327667
325364
323151
321041
319045
317176
315447
313871
312458
311216
310149
309258
308535
307969
307544
307240
307037
306915
306855
306841
306861
306906
306968
307043
307129
307224
307329
307442
307567
307705
307859
308034
308236
308476
308770
309139
309615
310244
311084
312209
313708
315679
318226
321454
325468
330378
336302
343369
351717
361485
372803
385780
400489
416959
435163
455013
476330
498749
521268
540232
)
;

boundaryField
{
    sides
    {
        type            zeroGradient;
    }
    empty
    {
        type            empty;
    }
}


// ************************************************************************* //
