/*--------------------------------*- C++ -*----------------------------------*\
| =========                 |                                                 |
| \\      /  F ield         | OpenFOAM: The Open Source CFD Toolbox           |
|  \\    /   O peration     | Version:  2312                                  |
|   \\  /    A nd           | Website:  www.openfoam.com                      |
|    \\/     M anipulation  |                                                 |
\*---------------------------------------------------------------------------*/
FoamFile
{
    version     2.0;
    format      ascii;
    arch        "LSB;label=32;scalar=64";
    class       volVectorField;
    location    "0.009";
    object      U;
}
// * * * * * * * * * * * * * * * * * * * * * * * * * * * * * * * * * * * * * //

dimensions      [0 1 -1 0 0 0 0];

internalField   nonuniform List<vector> 
100
(
(167.989 0 0)
(174.406 0 0)
(181.348 0 0)
(188.381 0 0)
(195.469 0 0)
(202.607 0 0)
(209.79 0 0)
(217.017 0 0)
(224.285 0 0)
(231.592 0 0)
(238.936 0 0)
(246.315 0 0)
(253.727 0 0)
(261.169 0 0)
(268.641 0 0)
(276.139 0 0)
(283.662 0 0)
(291.209 0 0)
(298.775 0 0)
(306.36 0 0)
(313.961 0 0)
(321.575 0 0)
(329.198 0 0)
(336.828 0 0)
(344.46 0 0)
(352.092 0 0)
(359.717 0 0)
(367.332 0 0)
(374.932 0 0)
(382.509 0 0)
(390.057 0 0)
(397.569 0 0)
(405.037 0 0)
(412.449 0 0)
(419.796 0 0)
(427.065 0 0)
(434.242 0 0)
(441.309 0 0)
(448.248 0 0)
(455.037 0 0)
(461.65 0 0)
(468.06 0 0)
(474.235 0 0)
(480.14 0 0)
(485.737 0 0)
(490.987 0 0)
(495.851 0 0)
(500.292 0 0)
(504.279 0 0)
(507.788 0 0)
(510.81 0 0)
(513.348 0 0)
(515.423 0 0)
(517.069 0 0)
(518.336 0 0)
(519.278 0 0)
(519.954 0 0)
(520.423 0 0)
(520.735 0 0)
(520.933 0 0)
(521.052 0 0)
(521.119 0 0)
(521.152 0 0)
(521.164 0 0)
(521.164 0 0)
(521.156 0 0)
(521.146 0 0)
(521.134 0 0)
(521.122 0 0)
(521.11 0 0)
(521.098 0 0)
(521.084 0 0)
(521.066 0 0)
(521.037 0 0)
(520.987 0 0)
(520.897 0 0)
(520.737 0 0)
(520.467 0 0)
(520.034 0 0)
(519.383 0 0)
(518.468 0 0)
(517.268 0 0)
(515.806 0 0)
(514.151 0 0)
(512.414 0 0)
(510.724 0 0)
(509.198 0 0)
(507.917 0 0)
(506.914 0 0)
(506.181 0 0)
(505.676 0 0)
(505.345 0 0)
(505.135 0 0)
(505 0 0)
(504.906 0 0)
(504.833 0 0)
(504.767 0 0)
(504.704 0 0)
(504.641 0 0)
(504.571 0 0)
)
;

boundaryField
{
    sides
    {
        type            zeroGradient;
    }
    empty
    {
        type            empty;
    }
}


// ************************************************************************* //
