/*--------------------------------*- C++ -*----------------------------------*\
| =========                 |                                                 |
| \\      /  F ield         | OpenFOAM: The Open Source CFD Toolbox           |
|  \\    /   O peration     | Version:  2312                                  |
|   \\  /    A nd           | Website:  www.openfoam.com                      |
|    \\/     M anipulation  |                                                 |
\*---------------------------------------------------------------------------*/
FoamFile
{
    version     2.0;
    format      ascii;
    arch        "LSB;label=32;scalar=64";
    class       volScalarField;
    location    "0.00017";
    object      p;
}
// * * * * * * * * * * * * * * * * * * * * * * * * * * * * * * * * * * * * * //

dimensions      [1 -1 -2 0 0 0 0];

internalField   nonuniform List<scalar> 
500
(
210816
210856
210880
210896
210909
210919
210927
210935
210941
210947
210953
210958
210962
210967
210971
210975
210979
210982
210986
210989
210993
210996
211000
211003
211006
211009
211013
211016
211019
211022
211025
211028
211032
211035
211038
211041
211045
211048
211051
211055
211058
211062
211065
211069
211072
211076
211080
211083
211087
211091
211095
211099
211103
211107
211112
211116
211120
211125
211129
211134
211139
211144
211148
211154
211159
211164
211169
211175
211180
211186
211192
211198
211204
211211
211217
211224
211230
211237
211244
211251
211259
211266
211274
211282
211290
211299
211307
211316
211325
211334
211343
211353
211363
211373
211384
211395
211406
211417
211429
211441
211453
211465
211478
211492
211505
211519
211534
211549
211564
211580
211596
211612
211629
211647
211665
211684
211703
211723
211743
211764
211786
211808
211831
211854
211878
211903
211929
211956
211983
212012
212041
212071
212102
212134
212167
212201
212236
212272
212310
212348
212388
212430
212472
212516
212562
212608
212657
212707
212759
212812
212868
212925
212984
213045
213108
213174
213241
213311
213384
213458
213536
213616
213699
213785
213874
213966
214061
214159
214262
214367
214477
214590
214707
214829
214955
215085
215220
215360
215505
215655
215811
215972
216139
216312
216492
216678
216870
217070
217277
217492
217714
217944
218183
218431
218687
218953
219229
219515
219811
220118
220436
220766
221108
221463
221830
222211
222606
223015
223439
223878
224334
224806
225295
225803
226328
226873
227437
228022
228629
229257
229907
230582
231280
232004
232754
233531
234336
235170
236034
236928
237855
238815
239809
240838
241904
243008
244151
245335
246561
247829
249143
250503
251911
253369
254878
256439
258055
259728
261459
263251
265105
267023
269007
271061
273185
275383
277656
280007
282439
284955
287556
290246
293027
295903
298876
301949
305126
308410
311803
315310
318934
322679
326547
330542
334670
338932
343333
347878
352570
357413
362411
367569
372891
378381
384044
389885
395907
402115
408514
415108
421901
428899
436104
443520
451151
458997
467059
475335
483812
492477
501309
510264
519270
528206
536872
544939
551868
556776
558245
554027
540718
513540
466901
397179
308433
217868
149821
115361
103782
100844
100181
100037
100006
99999.4
99998
99997.7
99997.6
99997.6
99997.6
99997.6
99997.6
99997.6
99997.6
99997.6
99997.6
99997.6
99997.6
99997.6
99997.6
99997.6
99997.6
99997.6
99997.6
99997.6
99997.6
99997.6
99997.6
99997.6
99997.6
99997.6
99997.6
99997.6
99997.6
99997.6
99997.6
99997.6
99997.6
99997.6
99997.6
99997.6
99997.6
99997.6
99997.6
99997.6
99997.6
99997.6
99997.6
99997.6
99997.6
99997.6
99997.6
99997.6
99997.6
99997.6
99997.6
99997.6
99997.6
99997.6
99997.6
99997.6
99997.6
99997.6
99997.6
99997.6
99997.6
99997.6
99997.6
99997.6
99997.6
99997.6
99997.6
99997.6
99997.6
99997.6
99997.6
99997.6
99997.6
99997.6
99997.6
99997.6
99997.6
99997.6
99997.6
99997.6
99997.6
99997.6
99997.6
99997.6
99997.6
99997.6
99997.6
99997.6
99997.6
99997.6
99997.6
99997.6
99997.6
99997.6
99997.6
99997.6
99997.6
99997.6
99997.6
99997.6
99997.6
99997.6
99997.6
99997.6
99997.6
99997.6
99997.6
99997.6
99997.6
99997.6
99997.6
99997.6
99997.6
99997.6
99997.6
99997.6
99997.6
99997.6
99997.6
99997.6
99997.6
99997.6
99997.6
99997.6
99997.6
99997.6
99997.6
99997.6
99997.6
99997.6
99997.6
99997.6
99997.6
99997.6
99997.6
99997.6
99997.6
99997.6
99997.6
99997.6
99997.6
99997.6
99997.6
99997.6
99997.6
99997.6
99997.6
99997.6
99997.6
99997.6
99997.6
99997.6
99997.6
99997.6
99997.6
99997.6
99997.6
99997.6
99997.6
99997.6
99997.6
99997.6
99997.6
99997.6
99997.6
99997.6
99997.6
99997.6
99997.6
99997.6
99997.6
99997.6
99997.6
99997.6
99997.6
99997.6
)
;

boundaryField
{
    wedge0
    {
        type            wedge;
    }
    wedge1
    {
        type            wedge;
    }
    wedge2
    {
        type            wedge;
    }
    wedge3
    {
        type            wedge;
    }
    outlet
    {
        type            zeroGradient;
    }
    defaultFaces
    {
        type            empty;
    }
}


// ************************************************************************* //
