/*--------------------------------*- C++ -*----------------------------------*\
| =========                 |                                                 |
| \\      /  F ield         | OpenFOAM: The Open Source CFD Toolbox           |
|  \\    /   O peration     | Version:  2312                                  |
|   \\  /    A nd           | Website:  www.openfoam.com                      |
|    \\/     M anipulation  |                                                 |
\*---------------------------------------------------------------------------*/
FoamFile
{
    version     2.0;
    format      ascii;
    arch        "LSB;label=32;scalar=64";
    class       volScalarField;
    location    "0.00017";
    object      rho;
}
// * * * * * * * * * * * * * * * * * * * * * * * * * * * * * * * * * * * * * //

dimensions      [1 -3 0 0 0 0 0];

internalField   nonuniform List<scalar> 
500
(
0.0045728
0.00457436
0.00457664
0.00457975
0.00458376
0.00458869
0.00459455
0.00460136
0.00460913
0.00461786
0.00462755
0.00463823
0.00464988
0.00466253
0.00467618
0.00469084
0.00470652
0.00472322
0.00474096
0.00475975
0.0047796
0.00480052
0.00482252
0.00484563
0.00486984
0.00489519
0.00492167
0.00494932
0.00497814
0.00500815
0.00503938
0.00507183
0.00510554
0.00514052
0.0051768
0.0052144
0.00525333
0.00529364
0.00533533
0.00537845
0.00542301
0.00546904
0.00551658
0.00556566
0.0056163
0.00566855
0.00572243
0.00577798
0.00583524
0.00589425
0.00595504
0.00601766
0.00608216
0.00614856
0.00621693
0.0062873
0.00635973
0.00643427
0.00651096
0.00658987
0.00667104
0.00675454
0.00684043
0.00692877
0.00701962
0.00711305
0.00720913
0.00730792
0.00740951
0.00751396
0.00762137
0.00773179
0.00784533
0.00796207
0.0080821
0.0082055
0.00833238
0.00846284
0.00859698
0.00873491
0.00887672
0.00902255
0.00917251
0.00932671
0.00948529
0.00964837
0.00981609
0.00998859
0.010166
0.0103485
0.0105362
0.0107294
0.010928
0.0111324
0.0113427
0.0115591
0.0117817
0.0120108
0.0122466
0.0124893
0.0127391
0.0129962
0.0132609
0.0135334
0.0138139
0.0141027
0.0144001
0.0147064
0.0150218
0.0153467
0.0156813
0.016026
0.016381
0.0167468
0.0171237
0.0175121
0.0179123
0.0183247
0.0187497
0.0191878
0.0196394
0.0201049
0.0205849
0.0210797
0.0215899
0.022116
0.0226585
0.023218
0.0237951
0.0243903
0.0250043
0.0256377
0.0262911
0.0269653
0.0276609
0.0283786
0.0291193
0.0298837
0.0306725
0.0314867
0.032327
0.0331944
0.0340898
0.0350141
0.0359684
0.0369535
0.0379706
0.0390208
0.0401051
0.0412247
0.0423809
0.0435748
0.0448076
0.0460808
0.0473957
0.0487536
0.050156
0.0516043
0.0531002
0.0546451
0.0562408
0.0578888
0.0595909
0.0613489
0.0631646
0.0650398
0.0669766
0.0689769
0.0710428
0.0731763
0.0753797
0.0776552
0.0800051
0.0824317
0.0849375
0.0875249
0.0901965
0.092955
0.0958029
0.0987432
0.101779
0.104912
0.108146
0.111485
0.11493
0.118486
0.122156
0.125943
0.12985
0.133881
0.138039
0.142329
0.146754
0.151318
0.156025
0.160878
0.165883
0.171042
0.176361
0.181844
0.187494
0.193318
0.199319
0.205502
0.211872
0.218433
0.225192
0.232153
0.23932
0.2467
0.254298
0.262119
0.270169
0.278454
0.286979
0.29575
0.304773
0.314054
0.3236
0.333417
0.343511
0.353888
0.364556
0.375521
0.386789
0.398368
0.410266
0.422488
0.435043
0.447937
0.461179
0.474775
0.488735
0.503065
0.517773
0.532869
0.548359
0.564254
0.58056
0.597288
0.614445
0.63204
0.650084
0.668585
0.687552
0.706996
0.726925
0.74735
0.768281
0.789728
0.811701
0.83421
0.857267
0.880882
0.905066
0.929831
0.955186
0.981144
1.00772
1.03491
1.06275
1.09123
1.12038
1.15019
1.1807
1.2119
1.2438
1.27643
1.3098
1.34391
1.37877
1.41441
1.45083
1.48804
1.52606
1.56489
1.60456
1.64506
1.68642
1.72863
1.77172
1.81569
1.86056
1.90633
1.95301
2.00061
2.04914
2.0986
2.14901
2.20037
2.25269
2.30596
2.3602
2.4154
2.47156
2.52867
2.58671
2.64567
2.70543
2.76589
2.82699
2.88856
2.95027
3.01159
3.07167
3.1291
3.18156
3.22531
3.25426
3.25877
3.22406
3.12897
2.94696
2.65685
2.26544
1.83549
1.47745
1.27023
1.19026
1.16783
1.16251
1.16132
1.16107
1.16101
1.161
1.161
1.161
1.161
1.161
1.161
1.161
1.161
1.161
1.161
1.161
1.161
1.161
1.161
1.161
1.161
1.161
1.161
1.161
1.161
1.161
1.161
1.161
1.161
1.161
1.161
1.161
1.161
1.161
1.161
1.161
1.161
1.161
1.161
1.161
1.161
1.161
1.161
1.161
1.161
1.161
1.161
1.161
1.161
1.161
1.161
1.161
1.161
1.161
1.161
1.161
1.161
1.161
1.161
1.161
1.161
1.161
1.161
1.161
1.161
1.161
1.161
1.161
1.161
1.161
1.161
1.161
1.161
1.161
1.161
1.161
1.161
1.161
1.161
1.161
1.161
1.161
1.161
1.161
1.161
1.161
1.161
1.161
1.161
1.161
1.161
1.161
1.161
1.161
1.161
1.161
1.161
1.161
1.161
1.161
1.161
1.161
1.161
1.161
1.161
1.161
1.161
1.161
1.161
1.161
1.161
1.161
1.161
1.161
1.161
1.161
1.161
1.161
1.161
1.161
1.161
1.161
1.161
1.161
1.161
1.161
1.161
1.161
1.161
1.161
1.161
1.161
1.161
1.161
1.161
1.161
1.161
1.161
1.161
1.161
1.161
1.161
1.161
1.161
1.161
1.161
1.161
1.161
1.161
1.161
1.161
1.161
1.161
1.161
1.161
1.161
1.161
1.161
1.161
1.161
1.161
1.161
1.161
1.161
1.161
1.161
1.161
1.161
1.161
1.161
1.161
1.161
1.161
1.161
1.161
1.161
1.161
1.161
1.161
1.161
1.161
)
;

boundaryField
{
    wedge0
    {
        type            wedge;
    }
    wedge1
    {
        type            wedge;
    }
    wedge2
    {
        type            wedge;
    }
    wedge3
    {
        type            wedge;
    }
    outlet
    {
        type            zeroGradient;
    }
    defaultFaces
    {
        type            empty;
    }
}


// ************************************************************************* //
