/*--------------------------------*- C++ -*----------------------------------*\
| =========                 |                                                 |
| \\      /  F ield         | OpenFOAM: The Open Source CFD Toolbox           |
|  \\    /   O peration     | Version:  2312                                  |
|   \\  /    A nd           | Website:  www.openfoam.com                      |
|    \\/     M anipulation  |                                                 |
\*---------------------------------------------------------------------------*/
FoamFile
{
    version     2.0;
    format      ascii;
    arch        "LSB;label=32;scalar=64";
    class       volScalarField;
    location    "0.00017";
    object      T;
}
// * * * * * * * * * * * * * * * * * * * * * * * * * * * * * * * * * * * * * //

dimensions      [0 0 0 1 0 0 0];

internalField   nonuniform List<scalar> 
500
(
160578
160553
160492
160395
160264
160100
159902
159671
159407
159110
158781
158419
158025
157600
157143
156655
156136
155587
155007
154398
153759
153091
152395
151671
150919
150140
149334
148503
147645
146762
145855
144924
143969
142992
141992
140970
139928
138864
137781
136679
135558
134419
133263
132090
130901
129697
128478
127245
125999
124740
123469
122186
120893
119590
118277
116955
115626
114289
112945
111595
110240
108879
107515
106147
104775
103402
102026
100650
99272.3
97895
96518.1
95142.3
93768.1
92396.1
91026.7
89660.5
88298
86939.6
85586
84237.5
82894.6
81557.7
80227.3
78903.8
77587.7
76279.3
74979
73687.1
72404.2
71130.4
69866.2
68611.9
67367.7
66134
64911.1
63699.3
62498.8
61309.8
60132.7
58967.6
57814.7
56674.3
55546.6
54431.7
53329.7
52241
51165.5
50103.4
49055
48020.1
46999.1
45991.9
44998.6
44019.3
43054.1
42103.1
41166.1
40243.4
39334.9
38440.6
37560.5
36694.7
35843
35005.6
34182.3
33373.1
32578
31796.9
31029.8
30276.5
29537.2
28811.5
28099.6
27401.2
26716.2
26044.7
25386.5
24741.4
24109.3
23490.2
22883.8
22290.2
21709.1
21140.4
20583.9
20039.6
19507.2
18986.7
18477.9
17980.5
17494.6
17019.8
16556.1
16103.3
15661.2
15229.7
14808.6
14397.6
13996.8
13605.9
13224.6
12853
12490.7
12137.6
11793.6
11458.5
11132.1
10814.3
10504.8
10203.6
9910.36
9625.04
9347.45
9077.42
8814.78
8559.39
8311.08
8069.69
7835.07
7607.06
7385.52
7170.29
6961.23
6758.19
6561.01
6369.57
6183.72
6003.32
5828.23
5658.33
5493.47
5333.53
5178.38
5027.9
4881.96
4740.43
4603.21
4470.18
4341.21
4216.2
4095.05
3977.63
3863.85
3753.61
3646.79
3543.32
3443.08
3345.98
3251.94
3160.87
3072.67
2987.26
2904.56
2824.49
2746.97
2671.91
2599.26
2528.93
2460.85
2394.96
2331.19
2269.46
2209.73
2151.92
2095.98
2041.85
1989.47
1938.79
1889.76
1842.31
1796.42
1752.01
1709.05
1667.5
1627.3
1588.42
1550.81
1514.43
1479.25
1445.22
1412.31
1380.49
1349.72
1319.96
1291.19
1263.37
1236.48
1210.48
1185.35
1161.06
1137.59
1114.9
1092.98
1071.8
1051.33
1031.57
1012.47
994.033
976.228
959.038
942.444
926.43
910.977
896.069
881.691
867.826
854.459
841.577
829.165
817.21
805.699
794.619
783.96
773.708
763.853
754.383
745.29
736.562
728.189
720.164
712.475
705.115
698.075
691.347
684.923
678.794
672.955
667.396
662.112
657.096
652.34
647.838
643.584
639.57
635.791
632.24
628.908
625.79
622.881
620.177
617.653
615.287
613.05
610.902
608.78
606.587
604.169
601.275
597.497
592.163
584.16
571.659
551.841
520.695
474.212
413.433
353.204
316.33
303.701
300.77
300.161
300.034
300.007
300.002
300
300
300
300
300
300
300
300
300
300
300
300
300
300
300
300
300
300
300
300
300
300
300
300
300
300
300
300
300
300
300
300
300
300
300
300
300
300
300
300
300
300
300
300
300
300
300
300
300
300
300
300
300
300
300
300
300
300
300
300
300
300
300
300
300
300
300
300
300
300
300
300
300
300
300
300
300
300
300
300
300
300
300
300
300
300
300
300
300
300
300
300
300
300
300
300
300
300
300
300
300
300
300
300
300
300
300
300
300
300
300
300
300
300
300
300
300
300
300
300
300
300
300
300
300
300
300
300
300
300
300
300
300
300
300
300
300
300
300
300
300
300
300
300
300
300
300
300
300
300
300
300
300
300
300
300
300
300
300
300
300
300
300
300
300
300
300
300
300
300
300
300
300
300
300
300
)
;

boundaryField
{
    wedge0
    {
        type            wedge;
    }
    wedge1
    {
        type            wedge;
    }
    wedge2
    {
        type            wedge;
    }
    wedge3
    {
        type            wedge;
    }
    outlet
    {
        type            zeroGradient;
    }
    defaultFaces
    {
        type            empty;
    }
}


// ************************************************************************* //
