/*--------------------------------*- C++ -*----------------------------------*\
| =========                 |                                                 |
| \\      /  F ield         | OpenFOAM: The Open Source CFD Toolbox           |
|  \\    /   O peration     | Version:  2312                                  |
|   \\  /    A nd           | Website:  www.openfoam.com                      |
|    \\/     M anipulation  |                                                 |
\*---------------------------------------------------------------------------*/
FoamFile
{
    version     2.0;
    format      ascii;
    arch        "LSB;label=32;scalar=64";
    class       volScalarField;
    location    "0.00017";
    object      thermo:e;
}
// * * * * * * * * * * * * * * * * * * * * * * * * * * * * * * * * * * * * * //

dimensions      [0 2 -2 0 0 0 0];

internalField   nonuniform List<scalar> 
500
(
1.15247e+08
1.15229e+08
1.15185e+08
1.15116e+08
1.15022e+08
1.14904e+08
1.14762e+08
1.14596e+08
1.14406e+08
1.14193e+08
1.13957e+08
1.13697e+08
1.13415e+08
1.13109e+08
1.12781e+08
1.12431e+08
1.12059e+08
1.11664e+08
1.11249e+08
1.10811e+08
1.10353e+08
1.09874e+08
1.09374e+08
1.08854e+08
1.08315e+08
1.07756e+08
1.07177e+08
1.0658e+08
1.05965e+08
1.05331e+08
1.0468e+08
1.04012e+08
1.03327e+08
1.02625e+08
1.01908e+08
1.01174e+08
1.00426e+08
9.9663e+07
9.88857e+07
9.80946e+07
9.72901e+07
9.64728e+07
9.5643e+07
9.48013e+07
9.3948e+07
9.30837e+07
9.22089e+07
9.1324e+07
9.04295e+07
8.95258e+07
8.86135e+07
8.76931e+07
8.67649e+07
8.58295e+07
8.48874e+07
8.39389e+07
8.29847e+07
8.20251e+07
8.10607e+07
8.00919e+07
7.91191e+07
7.81427e+07
7.71634e+07
7.61814e+07
7.51973e+07
7.42114e+07
7.32243e+07
7.22363e+07
7.12478e+07
7.02592e+07
6.92711e+07
6.82836e+07
6.72974e+07
6.63127e+07
6.53299e+07
6.43493e+07
6.33715e+07
6.23966e+07
6.14251e+07
6.04572e+07
5.94934e+07
5.8534e+07
5.75791e+07
5.66293e+07
5.56847e+07
5.47456e+07
5.38124e+07
5.28853e+07
5.19645e+07
5.10503e+07
5.0143e+07
4.92427e+07
4.83498e+07
4.74644e+07
4.65867e+07
4.5717e+07
4.48554e+07
4.40021e+07
4.31572e+07
4.2321e+07
4.14936e+07
4.06752e+07
3.98658e+07
3.90656e+07
3.82748e+07
3.74933e+07
3.67215e+07
3.59592e+07
3.52067e+07
3.4464e+07
3.37312e+07
3.30084e+07
3.22955e+07
3.15927e+07
3.09e+07
3.02174e+07
2.95449e+07
2.88827e+07
2.82307e+07
2.75888e+07
2.69572e+07
2.63358e+07
2.57245e+07
2.51235e+07
2.45326e+07
2.39519e+07
2.33812e+07
2.28206e+07
2.22701e+07
2.17295e+07
2.11988e+07
2.0678e+07
2.0167e+07
1.96658e+07
1.91743e+07
1.86923e+07
1.82199e+07
1.77569e+07
1.73032e+07
1.68589e+07
1.64237e+07
1.59977e+07
1.55806e+07
1.51724e+07
1.47731e+07
1.43824e+07
1.40003e+07
1.36268e+07
1.32616e+07
1.29046e+07
1.25559e+07
1.22151e+07
1.18823e+07
1.15573e+07
1.12401e+07
1.09303e+07
1.06281e+07
1.03332e+07
1.00455e+07
9.76492e+06
9.49132e+06
9.22458e+06
8.96457e+06
8.71119e+06
8.4643e+06
8.22379e+06
7.98953e+06
7.76141e+06
7.5393e+06
7.32309e+06
7.11266e+06
6.90789e+06
6.70866e+06
6.51486e+06
6.32637e+06
6.14307e+06
5.96486e+06
5.79161e+06
5.62323e+06
5.45959e+06
5.30059e+06
5.14612e+06
4.99608e+06
4.85035e+06
4.70884e+06
4.57144e+06
4.43806e+06
4.30858e+06
4.18292e+06
4.06098e+06
3.94266e+06
3.82788e+06
3.71652e+06
3.60852e+06
3.50378e+06
3.40221e+06
3.30373e+06
3.20825e+06
3.11569e+06
3.02597e+06
2.93901e+06
2.85475e+06
2.77309e+06
2.69396e+06
2.6173e+06
2.54304e+06
2.4711e+06
2.40141e+06
2.33392e+06
2.26856e+06
2.20525e+06
2.14396e+06
2.0846e+06
2.02714e+06
1.9715e+06
1.91763e+06
1.86549e+06
1.81501e+06
1.76615e+06
1.71886e+06
1.67309e+06
1.62879e+06
1.58592e+06
1.54443e+06
1.50429e+06
1.46544e+06
1.42784e+06
1.39147e+06
1.35628e+06
1.32223e+06
1.28929e+06
1.25742e+06
1.22659e+06
1.19676e+06
1.16791e+06
1.14001e+06
1.11301e+06
1.08691e+06
1.06165e+06
1.03723e+06
1.01362e+06
990776
968691
947335
926687
906723
887422
868764
850729
833296
816447
800165
784431
769229
754542
740354
726651
713417
700639
688301
676392
664899
653808
643109
632789
622838
613245
604000
595092
586511
578250
570298
562648
555290
548217
541421
534895
528630
522622
516861
511343
506061
501009
496180
491569
487171
482980
478990
475198
471598
468184
464953
461900
459020
456307
453758
451368
449129
447042
445101
443290
441592
439986
438444
436921
435347
433612
431535
428824
424995
419251
410280
396056
373703
340342
296721
253494
227030
217966
215863
215426
215334
215315
215311
215310
215310
215310
215310
215310
215310
215310
215310
215310
215310
215310
215310
215310
215310
215310
215310
215310
215310
215310
215310
215310
215310
215310
215310
215310
215310
215310
215310
215310
215310
215310
215310
215310
215310
215310
215310
215310
215310
215310
215310
215310
215310
215310
215310
215310
215310
215310
215310
215310
215310
215310
215310
215310
215310
215310
215310
215310
215310
215310
215310
215310
215310
215310
215310
215310
215310
215310
215310
215310
215310
215310
215310
215310
215310
215310
215310
215310
215310
215310
215310
215310
215310
215310
215310
215310
215310
215310
215310
215310
215310
215310
215310
215310
215310
215310
215310
215310
215310
215310
215310
215310
215310
215310
215310
215310
215310
215310
215310
215310
215310
215310
215310
215310
215310
215310
215310
215310
215310
215310
215310
215310
215310
215310
215310
215310
215310
215310
215310
215310
215310
215310
215310
215310
215310
215310
215310
215310
215310
215310
215310
215310
215310
215310
215310
215310
215310
215310
215310
215310
215310
215310
215310
215310
215310
215310
215310
215310
215310
215310
215310
215310
215310
215310
215310
215310
215310
215310
215310
215310
215310
215310
215310
215310
215310
215310
215310
)
;

boundaryField
{
    wedge0
    {
        type            wedge;
    }
    wedge1
    {
        type            wedge;
    }
    wedge2
    {
        type            wedge;
    }
    wedge3
    {
        type            wedge;
    }
    outlet
    {
        type            zeroGradient;
    }
    defaultFaces
    {
        type            empty;
    }
}


// ************************************************************************* //
