/*--------------------------------*- C++ -*----------------------------------*\
| =========                 |                                                 |
| \\      /  F ield         | OpenFOAM: The Open Source CFD Toolbox           |
|  \\    /   O peration     | Version:  2312                                  |
|   \\  /    A nd           | Website:  www.openfoam.com                      |
|    \\/     M anipulation  |                                                 |
\*---------------------------------------------------------------------------*/
FoamFile
{
    version     2.0;
    format      ascii;
    arch        "LSB;label=32;scalar=64";
    class       volVectorField;
    location    "0.00017";
    object      U;
}
// * * * * * * * * * * * * * * * * * * * * * * * * * * * * * * * * * * * * * //

dimensions      [0 1 -1 0 0 0 0];

internalField   nonuniform List<vector> 
500
(
(1.33493 -3.44954e-10 3.4279e-10)
(2.40344 -3.34778e-10 3.34358e-10)
(3.59527 -3.42235e-10 3.4227e-10)
(4.86115 -3.37635e-10 3.37987e-10)
(6.15658 -3.21211e-10 3.212e-10)
(7.46629 -3.17035e-10 3.17022e-10)
(8.78394 -3.10138e-10 3.10128e-10)
(10.1064 -3.03364e-10 3.03361e-10)
(11.4321 -2.91053e-10 2.91041e-10)
(12.76 -2.76679e-10 2.7667e-10)
(14.0895 -2.62325e-10 2.62311e-10)
(15.4201 -2.48467e-10 2.48459e-10)
(16.7517 -2.35238e-10 2.35238e-10)
(18.0839 -2.22271e-10 2.22275e-10)
(19.4168 -2.08232e-10 2.08226e-10)
(20.7501 -1.97013e-10 1.97022e-10)
(22.0838 -1.86068e-10 1.86066e-10)
(23.4178 -1.79619e-10 1.79622e-10)
(24.7521 -1.73117e-10 1.73104e-10)
(26.0866 -1.69046e-10 1.69036e-10)
(27.4214 -1.66423e-10 1.6642e-10)
(28.7563 -1.64898e-10 1.64901e-10)
(30.0914 -1.63142e-10 1.63136e-10)
(31.4266 -1.61366e-10 1.61368e-10)
(32.762 -1.5875e-10 1.58753e-10)
(34.0975 -1.55431e-10 1.55426e-10)
(35.4331 -1.52527e-10 1.52524e-10)
(36.7688 -1.49424e-10 1.49416e-10)
(38.1046 -1.44302e-10 1.44303e-10)
(39.4405 -1.4003e-10 1.40033e-10)
(40.7764 -1.35456e-10 1.35465e-10)
(42.1125 -1.30632e-10 1.30647e-10)
(43.4486 -1.24357e-10 1.24359e-10)
(44.7848 -1.17954e-10 1.17949e-10)
(46.121 -1.12181e-10 1.12181e-10)
(47.4574 -1.07101e-10 1.07101e-10)
(48.7937 -1.02875e-10 1.02875e-10)
(50.1302 -9.80815e-11 9.80815e-11)
(51.4667 -9.415e-11 9.415e-11)
(52.8033 -9.00293e-11 9.00293e-11)
(54.1399 -8.54188e-11 8.54188e-11)
(55.4766 -8.04007e-11 8.04007e-11)
(56.8133 -7.52529e-11 7.52529e-11)
(58.1501 -6.97761e-11 6.97761e-11)
(59.487 -6.46609e-11 6.46609e-11)
(60.8239 -5.92573e-11 5.92573e-11)
(62.1609 -5.35697e-11 5.35697e-11)
(63.4979 -4.7655e-11 4.7655e-11)
(64.835 -4.15156e-11 4.15156e-11)
(66.1721 -3.68854e-11 3.68854e-11)
(67.5094 -3.20089e-11 3.20089e-11)
(68.8466 -2.75318e-11 2.75318e-11)
(70.1839 -2.28357e-11 2.28357e-11)
(71.5213 -1.86612e-11 1.86612e-11)
(72.8588 -1.48431e-11 1.48431e-11)
(74.1963 -1.08111e-11 1.08111e-11)
(75.5338 -7.2398e-12 7.2398e-12)
(76.8715 -4.10389e-12 4.10389e-12)
(78.2092 -1.37068e-12 1.37068e-12)
(79.5469 1.00094e-12 -1.00094e-12)
(80.8847 2.48174e-12 -2.48174e-12)
(82.2226 3.64417e-12 -3.64417e-12)
(83.5606 4.62733e-12 -4.62733e-12)
(84.8986 5.33509e-12 -5.33509e-12)
(86.2367 5.7857e-12 -5.7857e-12)
(87.5749 6.17563e-12 -6.17563e-12)
(88.9132 6.33606e-12 -6.33606e-12)
(90.2515 6.31764e-12 -6.31764e-12)
(91.5899 5.96503e-12 -5.96503e-12)
(92.9284 5.76526e-12 -5.76526e-12)
(94.267 5.57748e-12 -5.57748e-12)
(95.6056 5.39947e-12 -5.39947e-12)
(96.9444 5.20913e-12 -5.20913e-12)
(98.2832 4.99019e-12 -4.99019e-12)
(99.6221 5.06771e-12 -5.06777e-12)
(100.961 5.11799e-12 -5.11565e-12)
(102.3 4.84752e-12 -4.84585e-12)
(103.639 4.42816e-12 -4.42812e-12)
(104.979 4.21673e-12 -4.21703e-12)
(106.318 4.00885e-12 -4.00618e-12)
(107.658 3.87958e-12 -3.83763e-12)
(108.997 3.49134e-12 -3.40543e-12)
(110.337 2.8563e-12 -2.72185e-12)
(111.677 1.97561e-12 -1.79321e-12)
(113.017 8.64025e-13 -6.31637e-13)
(114.357 -3.43018e-13 5.22285e-13)
(115.697 -1.30851e-12 1.4344e-12)
(117.038 -2.0709e-12 2.17034e-12)
(118.378 -2.61267e-12 2.68543e-12)
(119.719 -2.96054e-12 3.00078e-12)
(121.059 -3.11848e-12 3.11707e-12)
(122.4 -3.07983e-12 3.0375e-12)
(123.741 -3.01554e-12 3.04213e-12)
(125.082 -2.82702e-12 2.86876e-12)
(126.424 -2.46231e-12 2.51808e-12)
(127.765 -2.0234e-12 1.99834e-12)
(129.107 -1.74602e-12 1.59551e-12)
(130.449 -1.36172e-12 1.35947e-12)
(131.791 -9.95184e-13 1.00807e-12)
(133.133 -6.34248e-13 6.65134e-13)
(134.475 -4.24085e-13 4.73096e-13)
(135.818 -2.90172e-13 3.53006e-13)
(137.16 -7.95198e-14 9.05151e-14)
(138.503 1.48647e-13 -1.77551e-13)
(139.847 5.12335e-13 -5.81909e-13)
(141.19 1.01173e-12 -1.07259e-12)
(142.533 1.39012e-12 -1.4438e-12)
(143.877 1.90113e-12 -1.94724e-12)
(145.221 2.30308e-12 -2.34094e-12)
(146.566 2.83246e-12 -2.86194e-12)
(147.91 3.38767e-12 -3.40281e-12)
(149.255 3.85226e-12 -3.85237e-12)
(150.6 3.98836e-12 -3.98809e-12)
(151.945 4.10544e-12 -4.1057e-12)
(153.291 4.33731e-12 -4.33792e-12)
(154.637 4.29325e-12 -4.29398e-12)
(155.983 3.97443e-12 -3.97464e-12)
(157.329 3.75203e-12 -3.75186e-12)
(158.676 3.57319e-12 -3.57275e-12)
(160.023 3.31276e-12 -3.31266e-12)
(161.371 3.31093e-12 -3.3111e-12)
(162.718 3.30092e-12 -3.30099e-12)
(164.067 3.05951e-12 -3.05882e-12)
(165.415 2.7886e-12 -2.78779e-12)
(166.764 2.56012e-12 -2.55973e-12)
(168.113 2.35866e-12 -2.35847e-12)
(169.463 2.0858e-12 -2.08543e-12)
(170.813 1.739e-12 -1.73847e-12)
(172.164 1.35277e-12 -1.35255e-12)
(173.515 9.70503e-13 -9.70188e-13)
(174.866 6.38704e-13 -6.38254e-13)
(176.218 3.55832e-13 -3.55336e-13)
(177.571 1.21759e-13 -1.21215e-13)
(178.924 -6.5205e-14 6.54675e-14)
(180.277 -2.45828e-13 2.45824e-13)
(181.631 -2.66387e-13 2.66385e-13)
(182.986 -1.79335e-13 1.79334e-13)
(184.341 -1.96103e-13 1.96103e-13)
(185.697 -1.94504e-13 1.94504e-13)
(187.053 -1.93695e-13 1.93695e-13)
(188.411 -1.92496e-13 1.92496e-13)
(189.768 -1.91397e-13 1.91397e-13)
(191.127 -2.34087e-13 2.34087e-13)
(192.486 -1.88982e-13 1.88982e-13)
(193.846 -1.87313e-13 1.87313e-13)
(195.207 -1.56623e-13 1.56623e-13)
(196.568 -2.09225e-13 2.09225e-13)
(197.931 -1.85224e-13 1.85224e-13)
(199.294 -1.74201e-13 1.74196e-13)
(200.658 -8.44805e-14 8.44569e-14)
(202.023 -6.35747e-14 6.38101e-14)
(203.389 -9.2105e-14 9.23302e-14)
(204.756 -5.16149e-14 5.18303e-14)
(206.124 -4.77626e-14 4.79682e-14)
(207.493 -1.13802e-13 1.13996e-13)
(208.864 -1.202e-13 1.20382e-13)
(210.235 -1.55374e-13 1.55609e-13)
(211.607 -1.93909e-13 1.93864e-13)
(212.981 -1.75636e-13 1.75498e-13)
(214.356 -2.27823e-13 2.27778e-13)
(215.733 -2.29391e-13 2.29405e-13)
(217.11 -1.75186e-13 1.7524e-13)
(218.489 -1.71525e-13 1.71643e-13)
(219.87 -2.53722e-13 2.5387e-13)
(221.252 -1.89193e-13 1.89243e-13)
(222.636 -1.68512e-13 1.68473e-13)
(224.021 -1.6813e-13 1.6808e-13)
(225.408 -1.53562e-13 1.53493e-13)
(226.797 -1.87204e-13 1.87139e-13)
(228.187 -2.76405e-13 2.7641e-13)
(229.58 -3.54446e-13 3.53406e-13)
(230.974 -4.96861e-13 4.94631e-13)
(232.37 -5.93119e-13 5.9141e-13)
(233.769 -6.72189e-13 6.71312e-13)
(235.17 -7.33275e-13 7.3332e-13)
(236.573 -7.69145e-13 7.69117e-13)
(237.978 -7.81737e-13 7.81676e-13)
(239.386 -7.67768e-13 7.67616e-13)
(240.796 -7.22136e-13 7.21973e-13)
(242.209 -5.93918e-13 5.93841e-13)
(243.624 -4.7896e-13 4.7882e-13)
(245.043 -3.77075e-13 3.769e-13)
(246.464 -2.8918e-13 2.88982e-13)
(247.888 -2.16031e-13 2.158e-13)
(249.316 -1.59326e-13 1.59068e-13)
(250.746 -1.2156e-13 1.21188e-13)
(252.18 -6.566e-14 6.53699e-14)
(253.618 -2.40764e-14 2.39084e-14)
(255.059 0 0)
(256.504 1.6342e-14 -1.6342e-14)
(257.953 4.28834e-14 -4.28834e-14)
(259.406 5.06349e-14 -5.06349e-14)
(260.863 3.40859e-14 -3.40859e-14)
(262.324 1.69858e-14 -1.69858e-14)
(263.79 2.07324e-14 -2.07324e-14)
(265.26 0 0)
(266.736 -2.25308e-14 2.26107e-14)
(268.216 -2.95653e-14 2.97183e-14)
(269.702 -1.55557e-14 1.58122e-14)
(271.193 2.07319e-14 -2.0488e-14)
(272.689 4.97933e-14 -4.95465e-14)
(274.191 6.98981e-14 -6.96664e-14)
(275.699 7.85177e-14 -7.83062e-14)
(277.214 7.10406e-14 -7.08511e-14)
(278.735 4.8235e-14 -4.80768e-14)
(280.262 3.64783e-14 -3.6349e-14)
(281.796 4.04483e-14 -4.0297e-14)
(283.338 2.70883e-14 -2.69353e-14)
(284.886 2.72263e-14 -2.7087e-14)
(286.443 8.43505e-15 -8.30621e-15)
(288.007 -2.13594e-15 2.28261e-15)
(289.579 -1.12564e-14 1.13191e-14)
(291.16 -3.66311e-14 3.66667e-14)
(292.75 -6.1005e-14 6.10495e-14)
(294.348 -8.58912e-14 8.59356e-14)
(295.956 -1.12781e-13 1.12819e-13)
(297.573 -1.10196e-13 1.1024e-13)
(299.201 -9.26272e-14 9.26587e-14)
(300.839 -8.20908e-14 8.21017e-14)
(302.487 -8.28991e-14 8.28856e-14)
(304.146 -8.30713e-14 8.30727e-14)
(305.817 -8.21472e-14 8.21365e-14)
(307.499 -7.82608e-14 7.82536e-14)
(309.194 -5.88331e-14 5.88331e-14)
(310.901 -3.47865e-14 3.47865e-14)
(312.621 -3.50636e-14 3.50636e-14)
(314.354 -5.17859e-14 5.17859e-14)
(316.101 -7.35699e-14 7.35699e-14)
(317.862 -7.73922e-14 7.73922e-14)
(319.637 -8.23398e-14 8.23398e-14)
(321.428 -1.05713e-13 1.05713e-13)
(323.234 -1.10673e-13 1.10673e-13)
(325.056 -1.13477e-13 1.13477e-13)
(326.894 -1.12294e-13 1.12294e-13)
(328.749 -1.17138e-13 1.17138e-13)
(330.622 -1.21599e-13 1.21599e-13)
(332.512 -1.16126e-13 1.16126e-13)
(334.421 -1.18288e-13 1.18288e-13)
(336.349 -1.05718e-13 1.05718e-13)
(338.296 -1.03369e-13 1.03369e-13)
(340.263 -1.28607e-13 1.28607e-13)
(342.25 -1.37727e-13 1.37727e-13)
(344.259 -1.46623e-13 1.46623e-13)
(346.289 -1.23278e-13 1.23278e-13)
(348.341 -9.35682e-14 9.35682e-14)
(350.416 -8.85669e-14 8.85669e-14)
(352.514 -1.04521e-13 1.04521e-13)
(354.636 -1.0638e-13 1.0638e-13)
(356.782 -9.80741e-14 9.80741e-14)
(358.953 -1.15507e-13 1.15507e-13)
(361.15 -1.13787e-13 1.13787e-13)
(363.373 -1.00849e-13 1.00849e-13)
(365.622 -8.82879e-14 8.82879e-14)
(367.899 -7.75597e-14 7.75597e-14)
(370.203 -6.67646e-14 6.67646e-14)
(372.536 -5.81355e-14 5.81355e-14)
(374.898 -5.40167e-14 5.40167e-14)
(377.29 -6.65215e-14 6.65215e-14)
(379.711 -5.69677e-14 5.69677e-14)
(382.163 -4.8213e-14 4.8213e-14)
(384.647 -4.00702e-14 4.00702e-14)
(387.162 -3.24444e-14 3.24444e-14)
(389.709 -2.50924e-14 2.50924e-14)
(392.289 -1.68841e-14 1.68841e-14)
(394.902 -1.73607e-15 1.73607e-15)
(397.548 4.60137e-15 -4.60137e-15)
(400.229 1.76491e-14 -1.76491e-14)
(402.945 2.12779e-14 -2.12779e-14)
(405.695 2.43873e-14 -2.43873e-14)
(408.481 2.45454e-14 -2.45454e-14)
(411.302 1.98747e-14 -1.98747e-14)
(414.16 1.54982e-14 -1.54982e-14)
(417.053 1.13957e-14 -1.13957e-14)
(419.984 7.53445e-15 -7.53445e-15)
(422.951 3.50304e-15 -3.50304e-15)
(425.956 -6.23931e-15 6.23931e-15)
(428.998 -8.21303e-15 8.21303e-15)
(432.078 -4.89133e-15 4.89133e-15)
(435.196 -1.86995e-15 1.86995e-15)
(438.351 0 2.36556e-34)
(441.544 0 3.57662e-35)
(444.775 6.01833e-16 -6.01833e-16)
(448.044 8.1436e-15 -8.1436e-15)
(451.351 9.14703e-15 -9.14703e-15)
(454.695 1.6857e-15 -1.6857e-15)
(458.078 -6.82072e-17 6.82072e-17)
(461.497 0 2.6107e-35)
(464.953 0 0)
(468.447 -4.61266e-15 4.61266e-15)
(471.976 -7.20625e-15 7.20625e-15)
(475.541 -3.46322e-15 3.46322e-15)
(479.141 1.52045e-15 -1.52045e-15)
(482.775 -2.13039e-15 2.13039e-15)
(486.441 -1.44063e-15 1.44063e-15)
(490.139 0 0)
(493.864 6.02848e-15 -6.02848e-15)
(497.613 -6.66677e-16 6.66677e-16)
(501.381 0 1.24471e-35)
(505.163 0 0)
(508.946 0 1.04635e-35)
(512.707 -5.35729e-15 5.35729e-15)
(516.416 2.15732e-15 -2.15732e-15)
(520.025 -4.95508e-15 4.95508e-15)
(523.458 -2.32e-15 2.32e-15)
(526.594 2.45945e-15 -2.45945e-15)
(529.237 1.01016e-16 -1.01016e-16)
(531.073 0 4.64914e-36)
(531.587 0 0)
(529.944 -2.97088e-15 2.97088e-15)
(524.784 -5.27169e-15 5.27169e-15)
(513.903 -4.65331e-15 4.65331e-15)
(493.802 -3.92421e-15 3.92421e-15)
(459.249 -3.00109e-15 3.00109e-15)
(403.33 -1.7003e-15 1.7003e-15)
(320.051 9.67922e-16 -9.67922e-16)
(212.617 0 3.89206e-37)
(105.74 0 -6.41272e-38)
(36.293 -3.79104e-16 3.79104e-16)
(9.29992 -5.11302e-15 5.11302e-15)
(2.09819 -1.44897e-14 1.44897e-14)
(0.455589 -1.94063e-14 1.94063e-14)
(0.0976635 -1.97979e-14 1.97979e-14)
(0.02079 -1.57913e-14 1.57913e-14)
(0.00440054 -1.61265e-14 1.61265e-14)
(0.000926457 -1.21565e-14 1.21565e-14)
(0.000194025 -3.9274e-15 3.9274e-15)
(4.04231e-05 0 0)
(8.37845e-06 0 0)
(1.72775e-06 2.09521e-15 -2.09521e-15)
(3.5449e-07 0 0)
(7.23734e-08 0 0)
(1.47074e-08 0 0)
(2.97508e-09 0 0)
(5.95049e-10 -4.06531e-15 4.06531e-15)
(1.09101e-10 -4.05369e-15 4.05369e-15)
(3.12737e-12 -1.27789e-17 1.27789e-17)
(-1.61662e-11 0 0)
(-2.13393e-11 0 0)
(-2.0027e-11 0 0)
(-1.89627e-11 0 0)
(-2.86931e-11 0 0)
(-1.55023e-11 -1.93855e-15 1.93855e-15)
(-2.23317e-12 0 0)
(-8.96569e-12 0 0)
(-8.92358e-12 1.90634e-15 -1.90634e-15)
(9.32983e-12 2.80426e-18 -2.80426e-18)
(1.97605e-11 1.88461e-15 -1.88461e-15)
(9.31664e-12 0 0)
(-6.27208e-12 -3.09659e-15 3.09659e-15)
(-1.16107e-11 -2.46339e-15 2.46339e-15)
(-6.14951e-12 -5.52362e-15 5.52362e-15)
(-1.55189e-12 -4.89702e-15 4.89702e-15)
(7.40798e-12 -6.24318e-16 6.24318e-16)
(1.31514e-11 0 0)
(9.7507e-12 0 0)
(-5.40033e-13 1.7889e-15 -1.7889e-15)
(-1.21528e-11 0 0)
(-1.34761e-11 -4.243e-15 4.243e-15)
(-5.31413e-12 -4.93483e-15 4.93483e-15)
(-3.28952e-12 -2.11276e-15 2.11276e-15)
(-1.03239e-11 -2.79299e-15 2.79299e-15)
(-1.61264e-11 0 0)
(-1.26106e-11 0 0)
(7.40661e-12 -1.71206e-15 1.71206e-15)
(1.00409e-11 -2.84738e-18 2.84738e-18)
(9.1559e-12 -1.69342e-15 1.69342e-15)
(1.60581e-11 0 0)
(-5.43479e-13 1.67418e-15 -1.67418e-15)
(-2.57227e-11 0 0)
(-2.23715e-11 0 0)
(-1.17247e-11 -7.97347e-16 7.97347e-16)
(-1.91453e-11 -4.87501e-15 4.87501e-15)
(-1.94664e-11 -5.66711e-15 5.66711e-15)
(-1.79498e-11 -9.69883e-15 9.69883e-15)
(-1.51931e-11 -1.048e-14 1.048e-14)
(-2.0936e-11 -8.04025e-15 8.04025e-15)
(-2.82372e-11 -2.41559e-15 2.41559e-15)
(-2.20412e-11 0 0)
(-9.99982e-12 0 0)
(1.60109e-12 1.57123e-15 -1.57123e-15)
(-3.61229e-12 2.71733e-18 -2.71733e-18)
(-1.93584e-11 1.5547e-15 -1.5547e-15)
(-2.2651e-11 0 0)
(-1.1529e-11 0 0)
(-1.73606e-12 -1.52914e-15 1.52914e-15)
(-1.3213e-11 0 0)
(-1.88731e-11 0 0)
(-2.3557e-12 0 0)
(7.7575e-12 2.99665e-15 -2.99665e-15)
(8.23194e-12 2.98763e-15 -2.98763e-15)
(9.54343e-12 8.73602e-18 -8.73602e-18)
(1.81465e-11 0 0)
(1.37536e-11 0 0)
(-1.16635e-12 1.46024e-15 -1.46024e-15)
(-3.91527e-12 0 0)
(1.16005e-11 0 0)
(2.41412e-11 0 0)
(2.65409e-11 0 0)
(2.12277e-11 0 0)
(1.04473e-11 0 0)
(5.60876e-12 0 0)
(5.24731e-12 0 0)
(8.99952e-12 5.96164e-16 -5.96164e-16)
(3.18222e-11 3.97407e-15 -3.97407e-15)
(3.88568e-11 1.01029e-14 -1.01029e-14)
(1.90065e-11 1.34448e-14 -1.34448e-14)
(7.17429e-12 1.4026e-14 -1.4026e-14)
(-2.00098e-12 6.41929e-15 -6.41929e-15)
(-1.2008e-11 1.56298e-15 -1.56298e-15)
(-1.50555e-11 -5.67656e-16 5.67656e-16)
(-1.62181e-11 0 0)
(-8.46854e-12 0 0)
(5.71971e-12 0 0)
(3.23243e-12 0 0)
(5.66526e-12 0 0)
(1.19595e-11 0 0)
(1.23194e-11 0 0)
(7.06536e-12 0 0)
(8.12592e-12 -8.60875e-16 8.60875e-16)
(2.9299e-11 8.53859e-16 -8.53859e-16)
(4.22995e-11 0 0)
(4.32617e-11 0 0)
(2.58852e-11 -1.26746e-15 1.26746e-15)
(9.84654e-12 -1.79693e-18 1.79693e-18)
(3.81886e-12 -1.25507e-15 1.25507e-15)
(-3.18047e-12 -1.53986e-18 1.53986e-18)
(-7.38964e-12 -1.24239e-15 1.24239e-15)
(-1.39319e-11 0 0)
(-2.10088e-11 -8.20855e-16 8.20855e-16)
(-2.38922e-11 8.16135e-16 -8.16135e-16)
(-1.52637e-11 0 0)
(-2.88293e-11 1.21233e-15 -1.21233e-15)
(-2.37554e-11 -2.0119e-18 2.0119e-18)
(-3.81163e-12 1.20261e-15 -1.20261e-15)
(1.23414e-11 0 0)
(2.91791e-11 7.97359e-16 -7.97359e-16)
(3.40321e-11 -7.87464e-16 7.87464e-16)
(1.84374e-11 0 0)
(-1.22936e-12 -9.22231e-16 9.22231e-16)
(-5.73069e-12 -4.1856e-15 4.1856e-15)
(-7.83639e-12 -9.76845e-15 9.76845e-15)
(-1.83852e-11 -8.35117e-15 8.35117e-15)
(-2.53128e-11 0 0)
(-2.79968e-11 8.2734e-15 -8.2734e-15)
(-1.94403e-11 9.62974e-15 -9.62974e-15)
(-1.57468e-12 4.13094e-15 -4.13094e-15)
(-6.87003e-13 9.27119e-16 -9.27119e-16)
(2.00278e-11 0 0)
(4.8764e-11 9.54766e-16 -9.54766e-16)
(4.63129e-11 4.14542e-15 -4.14542e-15)
(2.33996e-11 6.24716e-16 -6.24716e-16)
(2.43374e-11 -1.86024e-15 1.86024e-15)
(3.15839e-11 -6.54567e-15 6.54567e-15)
(2.20849e-11 -4.60151e-15 4.60151e-15)
(1.02125e-11 -4.85889e-15 4.85889e-15)
(1.331e-13 -7.29869e-15 7.29869e-15)
(1.49303e-12 -1.19014e-14 1.19014e-14)
(2.09386e-12 -1.86481e-14 1.86481e-14)
(-1.63427e-12 -2.72113e-14 2.72113e-14)
(-9.48366e-12 -3.00977e-14 3.00977e-14)
(-1.69214e-11 -2.98924e-14 2.98924e-14)
(-1.90525e-11 -2.66662e-14 2.66662e-14)
(-2.61556e-11 -1.72219e-14 1.72219e-14)
(-2.34869e-11 -9.73764e-15 9.73764e-15)
(-1.08119e-11 -4.38451e-15 4.38451e-15)
(-6.95956e-12 -1.14459e-15 1.14459e-15)
(5.93107e-12 0 0)
(2.43892e-11 0 0)
(1.12831e-11 0 0)
(-2.91345e-12 0 0)
(-8.0034e-12 0 0)
(-3.2321e-13 6.73757e-16 -6.73757e-16)
(1.35987e-11 3.28879e-15 -3.28879e-15)
(1.12528e-12 -1.70447e-16 1.70447e-16)
(-1.4238e-11 -5.62366e-15 5.62366e-15)
(-9.64851e-12 -5.04451e-15 5.04451e-15)
(6.97563e-12 -6.46137e-15 6.46137e-15)
(1.70867e-11 -1.91121e-15 1.91121e-15)
(7.06352e-12 6.41744e-16 -6.41744e-16)
(-1.76809e-11 3.70596e-15 -3.70596e-15)
(-3.82027e-11 8.70948e-16 -8.70948e-16)
(-3.88386e-11 0 0)
(-2.31022e-11 0 0)
(-2.65073e-11 -3.55736e-16 3.55736e-16)
(-3.24294e-11 -2.63909e-15 2.63909e-15)
(-1.13391e-11 -6.83372e-15 6.83372e-15)
(1.07939e-11 -5.26764e-15 5.26764e-15)
(1.38326e-11 -9.42753e-15 9.42753e-15)
(-4.24363e-12 -1.54674e-14 1.54674e-14)
(-1.82024e-11 -2.32424e-14 2.32424e-14)
(-1.43727e-11 -2.53397e-14 2.53397e-14)
(-9.01535e-12 -2.35953e-14 2.35953e-14)
(-4.95238e-12 -1.6258e-14 1.6258e-14)
(3.49387e-12 -1.06812e-14 1.06812e-14)
(1.29117e-11 -6.97901e-15 6.97901e-15)
(2.8016e-11 -5.13632e-15 5.13632e-15)
(3.51632e-11 -5.13813e-15 5.13813e-15)
(3.31065e-11 -6.96893e-15 6.96893e-15)
(1.97831e-11 -3.32505e-15 3.32505e-15)
(3.41028e-12 -1.50961e-15 1.50961e-15)
)
;

boundaryField
{
    wedge0
    {
        type            wedge;
    }
    wedge1
    {
        type            wedge;
    }
    wedge2
    {
        type            wedge;
    }
    wedge3
    {
        type            wedge;
    }
    outlet
    {
        type            zeroGradient;
    }
    defaultFaces
    {
        type            empty;
    }
}


// ************************************************************************* //
