/*--------------------------------*- C++ -*----------------------------------*\
| =========                 |                                                 |
| \\      /  F ield         | OpenFOAM: The Open Source CFD Toolbox           |
|  \\    /   O peration     | Version:  2312                                  |
|   \\  /    A nd           | Website:  www.openfoam.com                      |
|    \\/     M anipulation  |                                                 |
\*---------------------------------------------------------------------------*/
FoamFile
{
    version     2.0;
    format      ascii;
    arch        "LSB;label=32;scalar=64";
    class       volScalarField;
    location    "0.041";
    object      rho;
}
// * * * * * * * * * * * * * * * * * * * * * * * * * * * * * * * * * * * * * //

dimensions      [1 -3 0 0 0 0 0];

internalField   nonuniform List<scalar> 
100
(
0.539362
0.536057
0.532705
0.529635
0.526556
0.523889
0.521167
0.51882
0.516449
0.514327
0.512225
0.510255
0.508322
0.506452
0.504611
0.5028
0.501007
0.49923
0.497464
0.495708
0.493962
0.492227
0.490501
0.488796
0.487097
0.485437
0.483771
0.48218
0.480546
0.479047
0.477435
0.476037
0.474436
0.473116
0.471526
0.470217
0.468666
0.467274
0.465799
0.464241
0.462876
0.461116
0.459879
0.457925
0.456845
0.454726
0.453857
0.451613
0.451011
0.448729
0.448382
0.446249
0.446026
0.444322
0.444002
0.443011
0.442394
0.442259
0.441298
0.441914
0.440769
0.44181
0.440768
0.441845
0.44115
0.442004
0.441726
0.44231
0.442352
0.442768
0.442987
0.443359
0.443678
0.444104
0.444561
0.445186
0.446022
0.44732
0.449433
0.453073
0.459249
0.46909
0.483038
0.500102
0.517931
0.533977
0.546677
0.55575
0.561773
0.56559
0.567963
0.569442
0.570391
0.571042
0.571525
0.571918
0.572258
0.572577
0.572885
0.573102
)
;

boundaryField
{
    sides
    {
        type            zeroGradient;
    }
    empty
    {
        type            empty;
    }
}


// ************************************************************************* //
