/*--------------------------------*- C++ -*----------------------------------*\
| =========                 |                                                 |
| \\      /  F ield         | OpenFOAM: The Open Source CFD Toolbox           |
|  \\    /   O peration     | Version:  2312                                  |
|   \\  /    A nd           | Website:  www.openfoam.com                      |
|    \\/     M anipulation  |                                                 |
\*---------------------------------------------------------------------------*/
FoamFile
{
    version     2.0;
    format      ascii;
    arch        "LSB;label=32;scalar=64";
    class       volScalarField;
    location    "0.041";
    object      thermo:e;
}
// * * * * * * * * * * * * * * * * * * * * * * * * * * * * * * * * * * * * * //

dimensions      [0 2 -2 0 0 0 0];

internalField   nonuniform List<scalar> 
100
(
172621
173901
172699
173594
172631
173030
172326
172284
171733
171414
170905
170444
169921
169393
168843
168282
167709
167127
166538
165940
165339
164724
164116
163476
162874
162187
161619
160839
160365
159415
159127
157915
157916
156371
156718
154861
155498
153492
154218
152356
152861
151505
151438
150960
149958
150732
148417
150823
146823
151186
145262
151666
143927
152015
143072
151978
142889
151427
143380
150452
144324
149329
145369
148370
146219
147756
146760
147478
147053
147415
147218
147447
147345
147522
147478
147642
147662
147871
148028
148453
149030
150113
151621
153691
155905
158088
159809
161151
161987
162596
162903
163169
163268
163407
163436
163533
163547
163630
163641
163726
)
;

boundaryField
{
    sides
    {
        type            zeroGradient;
    }
    empty
    {
        type            empty;
    }
}


// ************************************************************************* //
