/*--------------------------------*- C++ -*----------------------------------*\
| =========                 |                                                 |
| \\      /  F ield         | OpenFOAM: The Open Source CFD Toolbox           |
|  \\    /   O peration     | Version:  2312                                  |
|   \\  /    A nd           | Website:  www.openfoam.com                      |
|    \\/     M anipulation  |                                                 |
\*---------------------------------------------------------------------------*/
FoamFile
{
    version     2.0;
    format      ascii;
    arch        "LSB;label=32;scalar=64";
    class       volVectorField;
    location    "0.041";
    object      U;
}
// * * * * * * * * * * * * * * * * * * * * * * * * * * * * * * * * * * * * * //

dimensions      [0 1 -1 0 0 0 0];

internalField   nonuniform List<vector> 
100
(
(154.2 0 0)
(156.438 0 0)
(158.887 0 0)
(161.144 0 0)
(163.64 0 0)
(165.881 0 0)
(168.348 0 0)
(170.611 0 0)
(173.012 0 0)
(175.298 0 0)
(177.637 0 0)
(179.926 0 0)
(182.222 0 0)
(184.495 0 0)
(186.761 0 0)
(189.012 0 0)
(191.251 0 0)
(193.477 0 0)
(195.692 0 0)
(197.894 0 0)
(200.084 0 0)
(202.26 0 0)
(204.428 0 0)
(206.575 0 0)
(208.725 0 0)
(210.837 0 0)
(212.975 0 0)
(215.042 0 0)
(217.176 0 0)
(219.185 0 0)
(221.321 0 0)
(223.264 0 0)
(225.393 0 0)
(227.28 0 0)
(229.37 0 0)
(231.233 0 0)
(233.232 0 0)
(235.115 0 0)
(236.968 0 0)
(238.902 0 0)
(240.576 0 0)
(242.565 0 0)
(244.043 0 0)
(246.076 0 0)
(247.343 0 0)
(249.408 0 0)
(250.44 0 0)
(252.518 0 0)
(253.308 0 0)
(255.338 0 0)
(255.936 0 0)
(257.784 0 0)
(258.316 0 0)
(259.795 0 0)
(260.428 0 0)
(261.367 0 0)
(262.225 0 0)
(262.57 0 0)
(263.654 0 0)
(263.52 0 0)
(264.696 0 0)
(264.327 0 0)
(265.394 0 0)
(265.049 0 0)
(265.861 0 0)
(265.689 0 0)
(266.225 0 0)
(266.234 0 0)
(266.573 0 0)
(266.689 0 0)
(266.925 0 0)
(267.068 0 0)
(267.245 0 0)
(267.353 0 0)
(267.437 0 0)
(267.406 0 0)
(267.222 0 0)
(266.708 0 0)
(265.612 0 0)
(263.46 0 0)
(259.638 0 0)
(253.575 0 0)
(245.243 0 0)
(235.474 0 0)
(225.715 0 0)
(217.315 0 0)
(210.954 0 0)
(206.637 0 0)
(203.967 0 0)
(202.461 0 0)
(201.706 0 0)
(201.411 0 0)
(201.388 0 0)
(201.518 0 0)
(201.734 0 0)
(201.994 0 0)
(202.281 0 0)
(202.578 0 0)
(202.884 0 0)
(203.128 0 0)
)
;

boundaryField
{
    sides
    {
        type            mywaveTransmissive;
        gamma           1.4;
        value           nonuniform List<vector> 2((203.241 0 0) (153.916 0 0));
    }
    empty
    {
        type            empty;
    }
}


// ************************************************************************* //
