/*--------------------------------*- C++ -*----------------------------------*\
| =========                 |                                                 |
| \\      /  F ield         | OpenFOAM: The Open Source CFD Toolbox           |
|  \\    /   O peration     | Version:  2312                                  |
|   \\  /    A nd           | Website:  www.openfoam.com                      |
|    \\/     M anipulation  |                                                 |
\*---------------------------------------------------------------------------*/
FoamFile
{
    version     2.0;
    format      ascii;
    arch        "LSB;label=32;scalar=64";
    class       volScalarField;
    location    "0.0001";
    object      p;
}
// * * * * * * * * * * * * * * * * * * * * * * * * * * * * * * * * * * * * * //

dimensions      [1 -1 -2 0 0 0 0];

internalField   nonuniform List<scalar> 
100
(
4.63368e+07
4.63368e+07
4.63368e+07
4.63368e+07
4.63368e+07
4.63368e+07
4.63368e+07
4.63368e+07
4.63368e+07
4.63368e+07
4.63369e+07
4.63378e+07
4.6347e+07
4.64388e+07
4.7353e+07
5.57841e+07
1.05631e+08
2.40352e+08
4.20325e+08
5.62587e+08
6.36569e+08
6.62732e+08
6.68348e+08
6.67591e+08
6.65598e+08
6.63676e+08
6.62025e+08
6.60635e+08
6.59475e+08
6.58519e+08
6.57743e+08
6.57128e+08
6.56632e+08
6.56187e+08
6.55771e+08
6.5547e+08
6.55398e+08
6.55494e+08
6.55473e+08
6.55095e+08
6.54479e+08
6.54058e+08
6.54912e+08
6.75336e+08
6.68253e+08
6.55258e+08
6.54574e+08
6.55316e+08
6.56038e+08
6.56472e+08
6.56668e+08
6.56796e+08
6.56997e+08
6.57322e+08
6.57744e+08
6.58203e+08
6.58648e+08
6.59054e+08
6.59423e+08
6.59769e+08
6.60112e+08
6.6046e+08
6.60816e+08
6.61175e+08
6.61532e+08
6.61885e+08
6.62235e+08
6.62587e+08
6.62948e+08
6.63323e+08
6.63716e+08
6.6413e+08
6.64566e+08
6.65027e+08
6.65515e+08
6.66031e+08
6.66578e+08
6.67157e+08
6.6777e+08
6.68419e+08
6.69105e+08
6.6983e+08
6.70595e+08
6.71402e+08
6.72255e+08
6.73154e+08
6.74105e+08
6.75109e+08
6.76172e+08
6.77297e+08
6.78488e+08
6.79753e+08
6.81095e+08
6.82523e+08
6.84041e+08
6.85658e+08
6.87378e+08
6.89203e+08
6.91096e+08
6.92803e+08
)
;

boundaryField
{
    sides
    {
        type            zeroGradient;
    }
    empty
    {
        type            empty;
    }
}


// ************************************************************************* //
