/*--------------------------------*- C++ -*----------------------------------*\
| =========                 |                                                 |
| \\      /  F ield         | OpenFOAM: The Open Source CFD Toolbox           |
|  \\    /   O peration     | Version:  2312                                  |
|   \\  /    A nd           | Website:  www.openfoam.com                      |
|    \\/     M anipulation  |                                                 |
\*---------------------------------------------------------------------------*/
FoamFile
{
    version     2.0;
    format      ascii;
    arch        "LSB;label=32;scalar=64";
    class       volScalarField;
    location    "0.0001";
    object      rho;
}
// * * * * * * * * * * * * * * * * * * * * * * * * * * * * * * * * * * * * * //

dimensions      [1 -3 0 0 0 0 0];

internalField   nonuniform List<scalar> 
100
(
1.16102
1.16102
1.16102
1.16102
1.16102
1.16102
1.16102
1.16102
1.16102
1.16102
1.16102
1.16102
1.16102
1.16102
1.16102
1.16102
1.16102
1.16102
1.16102
1.16102
1.16102
1.16102
1.16102
1.16102
1.16102
1.16102
1.16102
1.16102
1.16102
1.16102
1.16102
1.16102
1.16102
1.16102
1.16102
1.16102
1.16102
1.16102
1.16102
1.16102
1.16102
1.16102
1.16102
1.16108
1.1617
1.16454
1.17334
1.18037
1.14628
1.03116
0.209824
0.129374
0.117655
0.11622
0.116109
0.116102
0.116102
0.116102
0.116102
0.116102
0.116102
0.116102
0.116102
0.116102
0.116102
0.116102
0.116102
0.116102
0.116102
0.116102
0.116102
0.116102
0.116102
0.116102
0.116102
0.116102
0.116102
0.116102
0.116102
0.116102
0.116102
0.116102
0.116102
0.116102
0.116102
0.116102
0.116102
0.116102
0.116102
0.116102
0.116102
0.116102
0.116102
0.116102
0.116102
0.116102
0.116102
0.116102
0.116102
0.116102
)
;

boundaryField
{
    sides
    {
        type            zeroGradient;
    }
    empty
    {
        type            empty;
    }
}


// ************************************************************************* //
