/*--------------------------------*- C++ -*----------------------------------*\
| =========                 |                                                 |
| \\      /  F ield         | OpenFOAM: The Open Source CFD Toolbox           |
|  \\    /   O peration     | Version:  2312                                  |
|   \\  /    A nd           | Website:  www.openfoam.com                      |
|    \\/     M anipulation  |                                                 |
\*---------------------------------------------------------------------------*/
FoamFile
{
    version     2.0;
    format      ascii;
    arch        "LSB;label=32;scalar=64";
    class       volScalarField;
    location    "0.0001";
    object      rho;
}
// * * * * * * * * * * * * * * * * * * * * * * * * * * * * * * * * * * * * * //

dimensions      [1 -3 0 0 0 0 0];

internalField   nonuniform List<scalar> 
100
(
1.16102
1.16102
1.16102
1.16102
1.16102
1.16102
1.16102
1.16102
1.16102
1.16102
1.16102
1.16104
1.16117
1.16246
1.17382
1.25141
1.55239
2.13126
2.75535
3.16834
3.30822
3.25443
3.09503
2.87346
2.61306
2.32845
2.03448
1.74628
1.47672
1.23453
1.02388
0.845164
0.696272
0.573762
0.47378
0.392595
0.326833
0.273552
0.230276
0.195015
0.166215
0.142654
0.123422
0.109581
0.102351
0.100361
0.100256
0.10037
0.10048
0.100547
0.100577
0.100596
0.100627
0.100677
0.100742
0.100812
0.10088
0.100942
0.100999
0.101052
0.101104
0.101158
0.101212
0.101267
0.101322
0.101376
0.10143
0.101483
0.101539
0.101596
0.101656
0.10172
0.101787
0.101857
0.101932
0.102011
0.102095
0.102183
0.102277
0.102377
0.102482
0.102593
0.10271
0.102834
0.102964
0.103102
0.103248
0.103401
0.103564
0.103736
0.103919
0.104113
0.104318
0.104537
0.104769
0.105017
0.105281
0.10556
0.10585
0.106111
)
;

boundaryField
{
    sides
    {
        type            zeroGradient;
    }
    empty
    {
        type            empty;
    }
}


// ************************************************************************* //
