/*--------------------------------*- C++ -*----------------------------------*\
| =========                 |                                                 |
| \\      /  F ield         | OpenFOAM: The Open Source CFD Toolbox           |
|  \\    /   O peration     | Version:  2312                                  |
|   \\  /    A nd           | Website:  www.openfoam.com                      |
|    \\/     M anipulation  |                                                 |
\*---------------------------------------------------------------------------*/
FoamFile
{
    version     2.0;
    format      ascii;
    arch        "LSB;label=32;scalar=64";
    class       volScalarField;
    location    "0.0001";
    object      thermo:e;
}
// * * * * * * * * * * * * * * * * * * * * * * * * * * * * * * * * * * * * * //

dimensions      [0 2 -2 0 0 0 0];

internalField   nonuniform List<scalar> 
100
(
5.95678e+07
5.95678e+07
5.95678e+07
5.95678e+07
5.95678e+07
5.95678e+07
5.95678e+07
5.95678e+07
5.95679e+07
5.95679e+07
5.95679e+07
5.95684e+07
5.95732e+07
5.96249e+07
6.02102e+07
6.65327e+07
1.01558e+08
1.6832e+08
2.27685e+08
2.65023e+08
2.87195e+08
3.0394e+08
3.22303e+08
3.46761e+08
3.80179e+08
4.25417e+08
4.85676e+08
5.64642e+08
6.66538e+08
7.96143e+08
9.58811e+08
1.16047e+09
1.40757e+09
1.70695e+09
2.06586e+09
2.49192e+09
2.99299e+09
3.57647e+09
4.24846e+09
5.01374e+09
5.87693e+09
6.84318e+09
7.91985e+09
9.19836e+09
1.08868e+10
1.2949e+10
1.51566e+10
1.73689e+10
1.95559e+10
2.16998e+10
2.37857e+10
2.58009e+10
2.77346e+10
2.95775e+10
3.13217e+10
3.29611e+10
3.4491e+10
3.59087e+10
3.72134e+10
3.84062e+10
3.94894e+10
4.04668e+10
4.1343e+10
4.21236e+10
4.28146e+10
4.34225e+10
4.39541e+10
4.44162e+10
4.48156e+10
4.51589e+10
4.54524e+10
4.57022e+10
4.59135e+10
4.60917e+10
4.62412e+10
4.63661e+10
4.64703e+10
4.65569e+10
4.66288e+10
4.66885e+10
4.67381e+10
4.67795e+10
4.68142e+10
4.68435e+10
4.68686e+10
4.68903e+10
4.69095e+10
4.69267e+10
4.69426e+10
4.69577e+10
4.69721e+10
4.69864e+10
4.70007e+10
4.70154e+10
4.70305e+10
4.70462e+10
4.70627e+10
4.70801e+10
4.7098e+10
4.71141e+10
)
;

boundaryField
{
    sides
    {
        type            zeroGradient;
    }
    empty
    {
        type            empty;
    }
}


// ************************************************************************* //
