/*--------------------------------*- C++ -*----------------------------------*\
| =========                 |                                                 |
| \\      /  F ield         | OpenFOAM: The Open Source CFD Toolbox           |
|  \\    /   O peration     | Version:  2312                                  |
|   \\  /    A nd           | Website:  www.openfoam.com                      |
|    \\/     M anipulation  |                                                 |
\*---------------------------------------------------------------------------*/
FoamFile
{
    version     2.0;
    format      ascii;
    arch        "LSB;label=32;scalar=64";
    class       volVectorField;
    location    "0.0001";
    object      U;
}
// * * * * * * * * * * * * * * * * * * * * * * * * * * * * * * * * * * * * * //

dimensions      [0 1 -1 0 0 0 0];

internalField   nonuniform List<vector> 
100
(
(2.09312e-11 0 0)
(1.11357e-11 0 0)
(-7.14466e-11 0 0)
(-8.7856e-10 0 0)
(-9.16868e-09 0 0)
(-9.47908e-08 0 0)
(-9.75611e-07 0 0)
(-9.99945e-06 0 0)
(-0.00010209 0 0)
(-0.00103852 0 0)
(-0.0105284 0 0)
(-0.106394 0 0)
(-1.07168 0 0)
(-10.736 0 0)
(-104.396 0 0)
(-840.075 0 0)
(-3862.24 0 0)
(-9048.07 0 0)
(-13785.9 0 0)
(-16860.2 0 0)
(-18431.1 0 0)
(-19051.1 0 0)
(-19222.3 0 0)
(-19237.5 0 0)
(-19211.8 0 0)
(-19181 0 0)
(-19151.9 0 0)
(-19125 0 0)
(-19099.6 0 0)
(-19075.6 0 0)
(-19052.8 0 0)
(-19031.5 0 0)
(-19011 0 0)
(-18989.8 0 0)
(-18966.8 0 0)
(-18945.3 0 0)
(-18932.4 0 0)
(-18928.3 0 0)
(-18919.2 0 0)
(-18887.2 0 0)
(-18833.3 0 0)
(-18781.5 0 0)
(-18692.8 0 0)
(-16991 0 0)
(-13761.3 0 0)
(-12047.7 0 0)
(-11790.3 0 0)
(-11673 0 0)
(-11592.3 0 0)
(-11552.2 0 0)
(-11543.8 0 0)
(-11545.7 0 0)
(-11539.8 0 0)
(-11518.9 0 0)
(-11485.8 0 0)
(-11447.1 0 0)
(-11408.6 0 0)
(-11372.8 0 0)
(-11338.9 0 0)
(-11304.7 0 0)
(-11267.4 0 0)
(-11225.7 0 0)
(-11179.2 0 0)
(-11128.8 0 0)
(-11075.2 0 0)
(-11019.3 0 0)
(-10961.3 0 0)
(-10901.3 0 0)
(-10839.3 0 0)
(-10775.2 0 0)
(-10709 0 0)
(-10641 0 0)
(-10571.3 0 0)
(-10500.2 0 0)
(-10427.6 0 0)
(-10353.4 0 0)
(-10277.6 0 0)
(-10199.8 0 0)
(-10119.7 0 0)
(-10037.3 0 0)
(-9952 0 0)
(-9863.66 0 0)
(-9771.88 0 0)
(-9676.29 0 0)
(-9576.45 0 0)
(-9471.92 0 0)
(-9362.19 0 0)
(-9246.76 0 0)
(-9125.08 0 0)
(-8996.54 0 0)
(-8860.53 0 0)
(-8716.37 0 0)
(-8563.37 0 0)
(-8400.76 0 0)
(-8227.77 0 0)
(-8043.62 0 0)
(-7847.63 0 0)
(-7639.83 0 0)
(-7424.44 0 0)
(-7230.23 0 0)
)
;

boundaryField
{
    sides
    {
        type            zeroGradient;
    }
    empty
    {
        type            empty;
    }
}


// ************************************************************************* //
