/*--------------------------------*- C++ -*----------------------------------*\
| =========                 |                                                 |
| \\      /  F ield         | OpenFOAM: The Open Source CFD Toolbox           |
|  \\    /   O peration     | Version:  2312                                  |
|   \\  /    A nd           | Website:  www.openfoam.com                      |
|    \\/     M anipulation  |                                                 |
\*---------------------------------------------------------------------------*/
FoamFile
{
    version     2.0;
    format      ascii;
    arch        "LSB;label=32;scalar=64";
    class       volVectorField;
    location    "0.0001";
    object      U;
}
// * * * * * * * * * * * * * * * * * * * * * * * * * * * * * * * * * * * * * //

dimensions      [0 1 -1 0 0 0 0];

internalField   nonuniform List<vector> 
100
(
(3.18425e-16 0 0)
(4.33194e-16 0 0)
(2.61801e-16 0 0)
(-3.13658e-16 0 0)
(-6.99762e-16 0 0)
(3.18425e-16 0 0)
(4.33194e-16 0 0)
(3.59859e-16 0 0)
(-5.31252e-16 0 0)
(-2.26283e-16 0 0)
(7.65488e-16 0 0)
(-1.29753e-16 0 0)
(0 0 0)
(4.04319e-16 0 0)
(-2.74566e-16 0 0)
(-1.36896e-16 0 0)
(7.14308e-18 0 0)
(0 0 0)
(4.04319e-16 0 0)
(-2.74566e-16 0 0)
(0 0 0)
(-1.29753e-16 0 0)
(0 0 0)
(4.04319e-16 0 0)
(-4.11462e-16 0 0)
(-2.3368e-16 0 0)
(-4.26143e-16 0 0)
(4.43001e-16 0 0)
(6.28284e-16 0 0)
(5.30473e-17 0 0)
(-2.62639e-16 0 0)
(0 0 0)
(0 0 0)
(8.40602e-17 0 0)
(2.21652e-16 0 0)
(-3.05712e-16 0 0)
(0 0 0)
(0 0 0)
(8.40602e-17 0 0)
(-8.8959e-16 0 0)
(-1.73436e-12 0 0)
(-3.20058e-09 0 0)
(-4.95607e-06 0 0)
(-0.00820654 0 0)
(-0.556773 0 0)
(-3.89251 0 0)
(-15.1472 0 0)
(-43.5613 0 0)
(-69.6274 0 0)
(-17.7199 0 0)
(118.977 0 0)
(47.3114 0 0)
(5.78986 0 0)
(0.456576 0 0)
(0.0266171 0 0)
(0.00123676 0 0)
(4.67474e-05 0 0)
(1.4666e-06 0 0)
(3.86738e-08 0 0)
(8.65681e-10 0 0)
(1.68053e-11 0 0)
(7.269e-13 0 0)
(6.26687e-14 0 0)
(0 0 0)
(-4.42757e-13 0 0)
(-2.47508e-13 0 0)
(6.90265e-13 0 0)
(0 0 0)
(0 0 0)
(-4.26819e-13 0 0)
(-5.51428e-13 0 0)
(6.94719e-13 0 0)
(3.69446e-13 0 0)
(1.1592e-16 0 0)
(-2.08991e-13 0 0)
(-8.42756e-13 0 0)
(4.98067e-13 0 0)
(0 0 0)
(5.67911e-13 0 0)
(-2.23223e-13 0 0)
(-8.30222e-13 0 0)
(6.37973e-13 0 0)
(-1.5244e-13 0 0)
(5.67911e-13 0 0)
(-2.23223e-13 0 0)
(-8.30222e-13 0 0)
(6.37973e-13 0 0)
(-1.40128e-13 0 0)
(5.556e-13 0 0)
(6.23614e-13 0 0)
(-8.89114e-13 0 0)
(-8.39509e-13 0 0)
(8.01696e-13 0 0)
(9.41006e-13 0 0)
(-8.41088e-14 0 0)
(-9.96569e-13 0 0)
(-6.75785e-13 0 0)
(8.15457e-13 0 0)
(9.41006e-13 0 0)
(-7.15751e-14 0 0)
)
;

boundaryField
{
    sides
    {
        type            zeroGradient;
    }
    empty
    {
        type            empty;
    }
}


// ************************************************************************* //
