/*--------------------------------*- C++ -*----------------------------------*\
| =========                 |                                                 |
| \\      /  F ield         | OpenFOAM: The Open Source CFD Toolbox           |
|  \\    /   O peration     | Version:  2212                                  |
|   \\  /    A nd           | Website:  www.openfoam.com                      |
|    \\/     M anipulation  |                                                 |
\*---------------------------------------------------------------------------*/
FoamFile
{
    version     2.0;
    format      ascii;
    arch        "LSB;label=32;scalar=64";
    class       volScalarField;
    location    "0.008";
    object      G;
}
// * * * * * * * * * * * * * * * * * * * * * * * * * * * * * * * * * * * * * //

dimensions      [1 0 -3 0 0 0 0];

internalField   nonuniform List<scalar> 
100
(
1779.62
1775.02
1769.96
1764.4
1758.29
1751.58
1744.24
1736.21
1727.42
1717.83
1707.35
1695.95
1683.53
1670.06
1655.47
1639.71
1622.76
1604.59
1585.21
1564.64
1542.93
1520.13
1496.33
1471.62
1446.14
1419.99
1393.33
1366.3
1339.05
1311.74
1284.52
1257.55
1231
1205.01
1179.75
1155.37
1132.03
1109.87
1089.05
1069.73
1052.05
1036.17
1022.25
1010.46
1000.95
993.889
989.462
987.848
989.234
993.817
1001.8
1013.4
1028.83
1048.31
1072.09
1100.41
1133.52
1171.69
1215.22
1264.42
1319.64
1381.24
1449.64
1525.25
1608.51
1699.85
1799.68
1908.35
2026.11
2153.07
2289.11
2433.82
2586.41
2745.61
2909.65
3076.2
3242.46
3405.28
3561.4
3707.63
3841.09
3959.35
4060.48
4143.07
4206.14
4249.02
4271.27
4272.55
4252.53
4210.86
4147.19
4061.4
3954.49
3830.05
3695.23
3559.22
3429.32
3309
3199
3098.99
)
;

boundaryField
{
    sides
    {
        type            myMarshakRadiation;
        refValue        nonuniform List<scalar> 2(1845.65 1837.2);
        refGradient     uniform 0;
        valueFraction   nonuniform List<scalar> 2(0.0361446 0.0361446);
        source          uniform 0;
        value           nonuniform List<scalar> 2(3053.69 1781.7);
    }
    empty
    {
        type            empty;
    }
}


// ************************************************************************* //
