/*--------------------------------*- C++ -*----------------------------------*\
| =========                 |                                                 |
| \\      /  F ield         | OpenFOAM: The Open Source CFD Toolbox           |
|  \\    /   O peration     | Version:  2212                                  |
|   \\  /    A nd           | Website:  www.openfoam.com                      |
|    \\/     M anipulation  |                                                 |
\*---------------------------------------------------------------------------*/
FoamFile
{
    version     2.0;
    format      ascii;
    arch        "LSB;label=32;scalar=64";
    class       volScalarField;
    location    "0.008";
    object      p;
}
// * * * * * * * * * * * * * * * * * * * * * * * * * * * * * * * * * * * * * //

dimensions      [1 -1 -2 0 0 0 0];

internalField   nonuniform List<scalar> 
100
(
99185.3
99184.8
99183.8
99181.8
99178.1
99171.1
99158.4
99136.2
99098.8
99037.7
98941.3
98794.4
98578.3
98271.5
97850.6
97292.7
96576.9
95686.7
94611.6
93347.9
91898.7
90273.7
88487.1
86557
84503.7
82347.9
80110.7
77811.6
75469.2
73099.9
70718.9
68339
65972.5
63628.4
61314.9
59039.4
56807.8
54625.5
52497
50426.3
48416.8
46472.7
44597
42792.6
41063.4
39413.5
37848.3
36373.9
34998.3
33731
32584.2
31570
30700.3
29984
29423.2
29009.8
28724.8
28541.3
28430.4
28366.6
28330.7
28310.1
28297.7
28289.8
28284.4
28280.7
28278.2
28276.5
28275.6
28275.2
28275.3
28275.8
28276.5
28277.6
28278.8
28280.3
28282
28283.8
28285.9
28288.2
28290.6
28293.3
28296.2
28299.2
28302.4
28305.6
28308.9
28312.9
28316.7
28303.8
28186.5
27676.9
26185.7
23127.6
18765.7
14529.3
11774.5
10537.2
10106.9
9974.32
)
;

boundaryField
{
    sides
    {
        type            zeroGradient;
    }
    empty
    {
        type            empty;
    }
}


// ************************************************************************* //
