/*--------------------------------*- C++ -*----------------------------------*\
| =========                 |                                                 |
| \\      /  F ield         | OpenFOAM: The Open Source CFD Toolbox           |
|  \\    /   O peration     | Version:  2212                                  |
|   \\  /    A nd           | Website:  www.openfoam.com                      |
|    \\/     M anipulation  |                                                 |
\*---------------------------------------------------------------------------*/
FoamFile
{
    version     2.0;
    format      ascii;
    arch        "LSB;label=32;scalar=64";
    class       volScalarField;
    location    "0.008";
    object      rho;
}
// * * * * * * * * * * * * * * * * * * * * * * * * * * * * * * * * * * * * * //

dimensions      [1 -3 0 0 0 0 0];

internalField   nonuniform List<scalar> 
100
(
1.16102
1.16101
1.161
1.16099
1.16096
1.1609
1.16079
1.16061
1.16029
1.15978
1.15898
1.15775
1.15594
1.15336
1.14983
1.14513
1.1391
1.13157
1.12244
1.11167
1.09927
1.08528
1.06981
1.05299
1.03497
1.01591
0.995971
0.975306
0.954065
0.932382
0.910382
0.888174
0.865868
0.843541
0.821271
0.799127
0.77717
0.755454
0.734031
0.712948
0.692247
0.671982
0.652197
0.632934
0.61425
0.596208
0.578883
0.562366
0.546769
0.532225
0.518903
0.506969
0.496593
0.487905
0.480947
0.475633
0.471734
0.468909
0.466775
0.464958
0.46312
0.460945
0.458109
0.454253
0.448985
0.441916
0.432734
0.421285
0.407633
0.392091
0.37519
0.357597
0.340025
0.323131
0.30746
0.293393
0.281158
0.270827
0.262356
0.255609
0.250389
0.246469
0.243612
0.241595
0.240214
0.239299
0.238713
0.238353
0.238137
0.237913
0.237119
0.234001
0.224952
0.206168
0.178547
0.150283
0.130586
0.121112
0.117654
0.116563
)
;

boundaryField
{
    sides
    {
        type            zeroGradient;
    }
    empty
    {
        type            empty;
    }
}


// ************************************************************************* //
