/*--------------------------------*- C++ -*----------------------------------*\
| =========                 |                                                 |
| \\      /  F ield         | OpenFOAM: The Open Source CFD Toolbox           |
|  \\    /   O peration     | Version:  2212                                  |
|   \\  /    A nd           | Website:  www.openfoam.com                      |
|    \\/     M anipulation  |                                                 |
\*---------------------------------------------------------------------------*/
FoamFile
{
    version     2.0;
    format      ascii;
    arch        "LSB;label=32;scalar=64";
    class       volScalarField;
    location    "0.008";
    object      rho;
}
// * * * * * * * * * * * * * * * * * * * * * * * * * * * * * * * * * * * * * //

dimensions      [1 -3 0 0 0 0 0];

internalField   nonuniform List<scalar> 
100
(
1.16102
1.16102
1.16101
1.161
1.16097
1.16093
1.16085
1.1607
1.16043
1.15999
1.15928
1.15817
1.1565
1.15408
1.15071
1.14617
1.14027
1.13284
1.12377
1.113
1.10053
1.08643
1.0708
1.05378
1.03553
1.01623
0.996048
0.975147
0.953684
0.931799
0.909622
0.887265
0.864838
0.842421
0.82009
0.797913
0.77595
0.754254
0.732873
0.711852
0.691232
0.671065
0.651389
0.632248
0.613692
0.595784
0.578595
0.562211
0.54674
0.532308
0.519073
0.507196
0.496835
0.488113
0.481078
0.475657
0.471645
0.468729
0.466547
0.464733
0.462949
0.460874
0.458172
0.454475
0.449379
0.44248
0.43345
0.422115
0.408526
0.392986
0.376027
0.358321
0.340595
0.323523
0.307667
0.293421
0.281025
0.270557
0.261979
0.255154
0.249887
0.245946
0.243092
0.241095
0.239749
0.238878
0.238342
0.23804
0.237892
0.237757
0.237078
0.23409
0.225133
0.206323
0.17856
0.15016
0.130438
0.121016
0.117608
0.116543
)
;

boundaryField
{
    sides
    {
        type            zeroGradient;
    }
    empty
    {
        type            empty;
    }
}


// ************************************************************************* //
