/*--------------------------------*- C++ -*----------------------------------*\
| =========                 |                                                 |
| \\      /  F ield         | OpenFOAM: The Open Source CFD Toolbox           |
|  \\    /   O peration     | Version:  2212                                  |
|   \\  /    A nd           | Website:  www.openfoam.com                      |
|    \\/     M anipulation  |                                                 |
\*---------------------------------------------------------------------------*/
FoamFile
{
    version     2.0;
    format      ascii;
    arch        "LSB;label=32;scalar=64";
    class       volScalarField;
    location    "0.008";
    object      T;
}
// * * * * * * * * * * * * * * * * * * * * * * * * * * * * * * * * * * * * * //

dimensions      [0 0 0 1 0 0 0];

internalField   nonuniform List<scalar> 
100
(
299.999
299.999
299.998
299.996
299.993
299.987
299.976
299.956
299.923
299.869
299.783
299.653
299.461
299.188
298.813
298.315
297.674
296.872
295.899
294.746
293.412
291.9
290.219
288.377
286.388
284.265
282.023
279.675
277.234
274.713
272.123
269.474
266.778
264.041
261.271
258.476
255.663
252.838
250.008
247.177
244.354
241.546
238.759
236.003
233.287
230.624
228.029
225.52
223.122
220.862
218.779
216.912
215.304
213.993
213.003
212.34
211.983
211.896
212.042
212.401
212.989
213.86
215.122
216.932
219.501
223.073
227.908
234.248
242.291
252.143
263.799
277.123
291.829
307.5
323.6
339.541
354.725
368.635
380.876
391.223
399.626
406.186
411.115
414.682
417.174
418.859
419.965
420.677
421.125
421.334
420.984
418.828
412.034
396.696
371.05
340.585
317.075
305.672
301.706
300.508
)
;

boundaryField
{
    sides
    {
        type            zeroGradient;
    }
    empty
    {
        type            empty;
    }
}


// ************************************************************************* //
