/*--------------------------------*- C++ -*----------------------------------*\
| =========                 |                                                 |
| \\      /  F ield         | OpenFOAM: The Open Source CFD Toolbox           |
|  \\    /   O peration     | Version:  2212                                  |
|   \\  /    A nd           | Website:  www.openfoam.com                      |
|    \\/     M anipulation  |                                                 |
\*---------------------------------------------------------------------------*/
FoamFile
{
    version     2.0;
    format      ascii;
    arch        "LSB;label=32;scalar=64";
    class       volScalarField;
    location    "0.008";
    object      thermo:e;
}
// * * * * * * * * * * * * * * * * * * * * * * * * * * * * * * * * * * * * * //

dimensions      [0 2 -2 0 0 0 0];

internalField   nonuniform List<scalar> 
100
(
213576
213576
213576
213575
213573
213570
213564
213552
213533
213501
213448
213366
213244
213066
212818
212484
212049
211500
210829
210028
209098
208041
206861
205567
204169
202676
201099
199448
197734
195964
194147
192291
190403
188489
186554
184604
182642
180673
178702
176733
174769
172818
170882
168969
167083
165235
163434
161693
160028
158458
157007
155704
154575
153646
152935
152447
152169
152079
152154
152380
152766
153348
154199
155427
157179
159627
162955
167336
172910
179756
187874
197169
207443
218403
229675
240842
251484
261234
269810
277050
282915
287477
290884
293327
295010
296126
296838
297281
297551
297672
297429
295959
291286
280670
262850
241641
225303
217428
214715
213904
)
;

boundaryField
{
    sides
    {
        type            zeroGradient;
    }
    empty
    {
        type            empty;
    }
}


// ************************************************************************* //
