/*--------------------------------*- C++ -*----------------------------------*\
| =========                 |                                                 |
| \\      /  F ield         | OpenFOAM: The Open Source CFD Toolbox           |
|  \\    /   O peration     | Version:  2212                                  |
|   \\  /    A nd           | Website:  www.openfoam.com                      |
|    \\/     M anipulation  |                                                 |
\*---------------------------------------------------------------------------*/
FoamFile
{
    version     2.0;
    format      ascii;
    arch        "LSB;label=32;scalar=64";
    class       volScalarField;
    location    "0.008";
    object      thermo:e;
}
// * * * * * * * * * * * * * * * * * * * * * * * * * * * * * * * * * * * * * //

dimensions      [0 2 -2 0 0 0 0];

internalField   nonuniform List<scalar> 
100
(
213576
213576
213575
213574
213572
213567
213559
213546
213523
213485
213426
213335
213202
213013
212753
212407
211961
211405
210729
209928
209002
207952
206784
205505
204123
202647
201089
199456
197759
196005
194203
192360
190483
188577
186648
184701
182741
180772
178799
176825
174855
172896
170951
169027
167130
165269
163456
161702
160025
158445
156988
155682
154556
153638
152946
152481
152231
152170
152272
152524
152935
153545
154428
155696
157492
159991
163371
167801
173415
180287
188409
197681
207903
218780
229942
240979
251480
261091
269540
276677
282470
286990
290385
292841
294557
295717
296478
296968
297276
297420
297179
295696
291018
280450
262759
241701
225420
217512
214761
213929
)
;

boundaryField
{
    sides
    {
        type            zeroGradient;
    }
    empty
    {
        type            empty;
    }
}


// ************************************************************************* //
