/*--------------------------------*- C++ -*----------------------------------*\
| =========                 |                                                 |
| \\      /  F ield         | OpenFOAM: The Open Source CFD Toolbox           |
|  \\    /   O peration     | Version:  2212                                  |
|   \\  /    A nd           | Website:  www.openfoam.com                      |
|    \\/     M anipulation  |                                                 |
\*---------------------------------------------------------------------------*/
FoamFile
{
    version     2.0;
    format      ascii;
    arch        "LSB;label=32;scalar=64";
    class       volVectorField;
    location    "0.008";
    object      U;
}
// * * * * * * * * * * * * * * * * * * * * * * * * * * * * * * * * * * * * * //

dimensions      [0 1 -1 0 0 0 0];

internalField   nonuniform List<vector> 
100
(
(0.00106883 0 0)
(0.00227157 0 0)
(0.00472694 0 0)
(0.00959722 0 0)
(0.0189683 0 0)
(0.0364438 0 0)
(0.0680045 0 0)
(0.123168 0 0)
(0.216421 0 0)
(0.36881 0 0)
(0.60943 0 0)
(0.976443 0 0)
(1.51718 0 0)
(2.28695 0 0)
(3.34638 0 0)
(4.75742 0 0)
(6.57872 0 0)
(8.86086 0 0)
(11.6427 0 0)
(14.9489 0 0)
(18.7894 0 0)
(23.1604 0 0)
(28.0463 0 0)
(33.4227 0 0)
(39.2586 0 0)
(45.5196 0 0)
(52.1699 0 0)
(59.1737 0 0)
(66.4964 0 0)
(74.1054 0 0)
(81.9707 0 0)
(90.063 0 0)
(98.3553 0 0)
(106.826 0 0)
(115.455 0 0)
(124.22 0 0)
(133.103 0 0)
(142.086 0 0)
(151.151 0 0)
(160.278 0 0)
(169.447 0 0)
(178.634 0 0)
(187.815 0 0)
(196.962 0 0)
(206.04 0 0)
(215.005 0 0)
(223.802 0 0)
(232.363 0 0)
(240.6 0 0)
(248.405 0 0)
(255.648 0 0)
(262.188 0 0)
(267.884 0 0)
(272.621 0 0)
(276.344 0 0)
(279.087 0 0)
(280.971 0 0)
(282.179 0 0)
(282.909 0 0)
(283.331 0 0)
(283.574 0 0)
(283.719 0 0)
(283.812 0 0)
(283.878 0 0)
(283.927 0 0)
(283.967 0 0)
(284 0 0)
(284.029 0 0)
(284.056 0 0)
(284.08 0 0)
(284.103 0 0)
(284.126 0 0)
(284.149 0 0)
(284.173 0 0)
(284.197 0 0)
(284.222 0 0)
(284.249 0 0)
(284.276 0 0)
(284.305 0 0)
(284.336 0 0)
(284.368 0 0)
(284.401 0 0)
(284.437 0 0)
(284.473 0 0)
(284.51 0 0)
(284.548 0 0)
(284.587 0 0)
(284.634 0 0)
(284.666 0 0)
(284.434 0 0)
(282.752 0 0)
(276.073 0 0)
(257.612 0 0)
(219.865 0 0)
(161.498 0 0)
(94.7657 0 0)
(42.228 0 0)
(14.8965 0 0)
(4.63238 0 0)
(1.37511 0 0)
)
;

boundaryField
{
    sides
    {
        type            zeroGradient;
    }
    empty
    {
        type            empty;
    }
}


// ************************************************************************* //
