/*--------------------------------*- C++ -*----------------------------------*\
| =========                 |                                                 |
| \\      /  F ield         | OpenFOAM: The Open Source CFD Toolbox           |
|  \\    /   O peration     | Version:  2312                                  |
|   \\  /    A nd           | Website:  www.openfoam.com                      |
|    \\/     M anipulation  |                                                 |
\*---------------------------------------------------------------------------*/
FoamFile
{
    version     2.0;
    format      ascii;
    arch        "LSB;label=32;scalar=64";
    class       volScalarField;
    location    "0.007";
    object      p;
}
// * * * * * * * * * * * * * * * * * * * * * * * * * * * * * * * * * * * * * //

dimensions      [1 -1 -2 0 0 0 0];

internalField   nonuniform List<scalar> 
100
(
353406
347767
341882
335912
329879
323801
317696
311576
305455
299345
293255
287194
281171
275193
269266
263395
257585
251842
246169
240570
235047
229604
224243
218967
213777
208676
203666
198747
193923
189194
184562
180030
175599
171271
167049
162936
158936
155052
151290
147656
144155
140797
137591
134548
131680
129001
126527
124272
122249
120470
118942
117665
116628
115817
115204
114761
114453
114249
114120
114044
114002
113982
113975
113976
113981
113989
113998
114007
114016
114025
114034
114042
114050
114058
114066
114074
114082
114093
114109
114137
114190
114286
114449
114702
115060
115520
116055
116619
117158
117626
117995
118259
118429
118526
118571
118586
118583
118572
118559
118545
)
;

boundaryField
{
    sides
    {
        type            zeroGradient;
    }
    empty
    {
        type            empty;
    }
}


// ************************************************************************* //
