/*--------------------------------*- C++ -*----------------------------------*\
| =========                 |                                                 |
| \\      /  F ield         | OpenFOAM: The Open Source CFD Toolbox           |
|  \\    /   O peration     | Version:  2312                                  |
|   \\  /    A nd           | Website:  www.openfoam.com                      |
|    \\/     M anipulation  |                                                 |
\*---------------------------------------------------------------------------*/
FoamFile
{
    version     2.0;
    format      ascii;
    arch        "LSB;label=32;scalar=64";
    class       volScalarField;
    location    "0.007";
    object      rho;
}
// * * * * * * * * * * * * * * * * * * * * * * * * * * * * * * * * * * * * * //

dimensions      [1 -3 0 0 0 0 0];

internalField   nonuniform List<scalar> 
100
(
1.05733
1.04728
1.03671
1.0259
1.0149
1.00373
0.992416
0.980985
0.969457
0.957854
0.94619
0.934483
0.922747
0.910994
0.899237
0.887485
0.875751
0.864041
0.852366
0.840733
0.82915
0.817624
0.806161
0.794768
0.783452
0.772219
0.761074
0.750024
0.739075
0.728233
0.717506
0.706901
0.696427
0.686091
0.675904
0.665878
0.656026
0.646363
0.636907
0.627678
0.6187
0.610002
0.601616
0.593578
0.585933
0.578725
0.572006
0.565827
0.560236
0.555275
0.550972
0.547333
0.544345
0.541962
0.540119
0.538733
0.537711
0.536964
0.536411
0.535985
0.535632
0.535313
0.534998
0.534661
0.534281
0.533834
0.533291
0.532613
0.531747
0.530619
0.529132
0.527156
0.52453
0.521064
0.516539
0.510731
0.503425
0.494446
0.483689
0.471143
0.456915
0.441223
0.424387
0.406789
0.38883
0.370886
0.35328
0.336281
0.320107
0.304936
0.290916
0.278154
0.266718
0.256626
0.247855
0.240344
0.234009
0.228765
0.224594
0.221768
)
;

boundaryField
{
    sides
    {
        type            zeroGradient;
    }
    empty
    {
        type            empty;
    }
}


// ************************************************************************* //
