/*--------------------------------*- C++ -*----------------------------------*\
| =========                 |                                                 |
| \\      /  F ield         | OpenFOAM: The Open Source CFD Toolbox           |
|  \\    /   O peration     | Version:  2312                                  |
|   \\  /    A nd           | Website:  www.openfoam.com                      |
|    \\/     M anipulation  |                                                 |
\*---------------------------------------------------------------------------*/
FoamFile
{
    version     2.0;
    format      ascii;
    arch        "LSB;label=32;scalar=64";
    class       volScalarField;
    location    "0.007";
    object      T;
}
// * * * * * * * * * * * * * * * * * * * * * * * * * * * * * * * * * * * * * //

dimensions      [0 0 0 1 0 0 0];

internalField   nonuniform List<scalar> 
100
(
281.401
279.569
277.64
275.665
273.649
271.597
269.514
267.402
265.266
263.109
260.933
258.742
256.538
254.323
252.099
249.867
247.631
245.39
243.148
240.905
238.663
236.423
234.186
231.954
229.727
227.508
225.297
223.095
220.904
218.726
216.561
214.412
212.28
210.167
208.076
206.009
203.969
201.96
199.985
198.051
196.161
194.324
192.546
190.837
189.206
187.666
186.228
184.906
183.712
182.657
181.749
180.991
180.382
179.915
179.574
179.343
179.201
179.131
179.114
179.136
179.188
179.263
179.358
179.473
179.609
179.771
179.968
180.211
180.519
180.917
181.44
182.133
183.058
184.289
185.916
188.043
190.786
194.268
198.617
203.957
210.406
218.072
227.046
237.392
249.132
262.23
276.573
291.966
308.135
324.756
341.475
357.941
373.825
388.844
402.76
415.397
426.632
436.371
444.425
450.035
)
;

boundaryField
{
    sides
    {
        type            zeroGradient;
    }
    empty
    {
        type            empty;
    }
}


// ************************************************************************* //
