/*--------------------------------*- C++ -*----------------------------------*\
| =========                 |                                                 |
| \\      /  F ield         | OpenFOAM: The Open Source CFD Toolbox           |
|  \\    /   O peration     | Version:  2312                                  |
|   \\  /    A nd           | Website:  www.openfoam.com                      |
|    \\/     M anipulation  |                                                 |
\*---------------------------------------------------------------------------*/
FoamFile
{
    version     2.0;
    format      ascii;
    arch        "LSB;label=32;scalar=64";
    class       volScalarField;
    location    "0.007";
    object      thermo:e;
}
// * * * * * * * * * * * * * * * * * * * * * * * * * * * * * * * * * * * * * //

dimensions      [0 2 -2 0 0 0 0];

internalField   nonuniform List<scalar> 
100
(
483447
480299
476986
473593
470130
466604
463025
459397
455727
452021
448284
444519
440732
436927
433105
429272
425429
421581
417728
413875
410023
406174
402331
398496
394671
390858
387060
383277
379514
375771
372052
368360
364697
361067
357475
353923
350419
346967
343575
340251
337005
333848
330794
327857
325056
322410
319941
317669
315617
313804
312244
310943
309897
309093
308508
308111
307868
307747
307717
307756
307845
307974
308138
308335
308568
308847
309185
309603
310132
310816
311713
312905
314494
316608
319403
323057
327770
333753
341224
350398
361477
374648
390065
407839
428009
450511
475153
501597
529377
557931
586654
614942
642232
668033
691941
713652
732954
749686
763522
773161
)
;

boundaryField
{
    sides
    {
        type            zeroGradient;
    }
    empty
    {
        type            empty;
    }
}


// ************************************************************************* //
