/*--------------------------------*- C++ -*----------------------------------*\
| =========                 |                                                 |
| \\      /  F ield         | OpenFOAM: The Open Source CFD Toolbox           |
|  \\    /   O peration     | Version:  2312                                  |
|   \\  /    A nd           | Website:  www.openfoam.com                      |
|    \\/     M anipulation  |                                                 |
\*---------------------------------------------------------------------------*/
FoamFile
{
    version     2.0;
    format      ascii;
    arch        "LSB;label=32;scalar=64";
    class       volVectorField;
    location    "0.007";
    object      U;
}
// * * * * * * * * * * * * * * * * * * * * * * * * * * * * * * * * * * * * * //

dimensions      [0 1 -1 0 0 0 0];

internalField   nonuniform List<vector> 
100
(
(72.9771 0 0)
(79.8795 0 0)
(87.2166 0 0)
(94.8013 0 0)
(102.609 0 0)
(110.622 0 0)
(118.822 0 0)
(127.193 0 0)
(135.72 0 0)
(144.388 0 0)
(153.185 0 0)
(162.1 0 0)
(171.12 0 0)
(180.236 0 0)
(189.439 0 0)
(198.721 0 0)
(208.073 0 0)
(217.489 0 0)
(226.963 0 0)
(236.488 0 0)
(246.058 0 0)
(255.669 0 0)
(265.315 0 0)
(274.991 0 0)
(284.691 0 0)
(294.412 0 0)
(304.147 0 0)
(313.89 0 0)
(323.637 0 0)
(333.381 0 0)
(343.114 0 0)
(352.829 0 0)
(362.517 0 0)
(372.169 0 0)
(381.772 0 0)
(391.314 0 0)
(400.778 0 0)
(410.148 0 0)
(419.4 0 0)
(428.511 0 0)
(437.449 0 0)
(446.18 0 0)
(454.662 0 0)
(462.849 0 0)
(470.685 0 0)
(478.11 0 0)
(485.059 0 0)
(491.465 0 0)
(497.264 0 0)
(502.401 0 0)
(506.838 0 0)
(510.56 0 0)
(513.581 0 0)
(515.947 0 0)
(517.729 0 0)
(519.018 0 0)
(519.911 0 0)
(520.504 0 0)
(520.879 0 0)
(521.105 0 0)
(521.234 0 0)
(521.301 0 0)
(521.331 0 0)
(521.34 0 0)
(521.338 0 0)
(521.33 0 0)
(521.319 0 0)
(521.308 0 0)
(521.298 0 0)
(521.289 0 0)
(521.281 0 0)
(521.274 0 0)
(521.269 0 0)
(521.265 0 0)
(521.263 0 0)
(521.26 0 0)
(521.255 0 0)
(521.242 0 0)
(521.208 0 0)
(521.126 0 0)
(520.951 0 0)
(520.614 0 0)
(520.027 0 0)
(519.098 0 0)
(517.768 0 0)
(516.04 0 0)
(514.002 0 0)
(511.816 0 0)
(509.677 0 0)
(507.763 0 0)
(506.187 0 0)
(504.99 0 0)
(504.143 0 0)
(503.578 0 0)
(503.215 0 0)
(502.983 0 0)
(502.826 0 0)
(502.707 0 0)
(502.607 0 0)
(502.506 0 0)
)
;

boundaryField
{
    sides
    {
        type            zeroGradient;
    }
    empty
    {
        type            empty;
    }
}


// ************************************************************************* //
