/*--------------------------------*- C++ -*----------------------------------*\
| =========                 |                                                 |
| \\      /  F ield         | OpenFOAM: The Open Source CFD Toolbox           |
|  \\    /   O peration     | Version:  2312                                  |
|   \\  /    A nd           | Website:  www.openfoam.com                      |
|    \\/     M anipulation  |                                                 |
\*---------------------------------------------------------------------------*/
FoamFile
{
    version     2.0;
    format      ascii;
    arch        "LSB;label=32;scalar=64";
    class       volScalarField;
    location    "0.006";
    object      p;
}
// * * * * * * * * * * * * * * * * * * * * * * * * * * * * * * * * * * * * * //

dimensions      [1 -1 -2 0 0 0 0];

internalField   nonuniform List<scalar> 
100
(
391238
386985
382311
377272
371896
366216
360268
354087
347707
341163
334486
327706
320850
313944
307008
300064
293129
286220
279349
272530
265773
259088
252483
245966
239542
233217
226996
220884
214885
209001
203237
197595
192078
186690
181434
176312
171330
166490
161799
157262
152887
148681
144655
140821
137193
133788
130624
127722
125100
122778
120771
119083
117710
116636
115830
115251
114856
114598
114440
114348
114299
114276
114269
114270
114275
114284
114294
114304
114314
114324
114334
114344
114354
114363
114372
114380
114389
114397
114405
114413
114421
114432
114449
114479
114536
114637
114808
115072
115441
115910
116450
117009
117530
117965
118288
118500
118622
118681
118705
118713
)
;

boundaryField
{
    sides
    {
        type            zeroGradient;
    }
    empty
    {
        type            empty;
    }
}


// ************************************************************************* //
