/*--------------------------------*- C++ -*----------------------------------*\
| =========                 |                                                 |
| \\      /  F ield         | OpenFOAM: The Open Source CFD Toolbox           |
|  \\    /   O peration     | Version:  2212                                  |
|   \\  /    A nd           | Website:  www.openfoam.com                      |
|    \\/     M anipulation  |                                                 |
\*---------------------------------------------------------------------------*/
FoamFile
{
    version     2.0;
    format      ascii;
    arch        "LSB;label=32;scalar=64";
    class       volScalarField;
    location    "0.006";
    object      p;
}
// * * * * * * * * * * * * * * * * * * * * * * * * * * * * * * * * * * * * * //

dimensions      [1 -1 -2 0 0 0 0];

internalField   nonuniform List<scalar> 
100
(
99999.3
99999.3
99999.3
99999.3
99999.3
99999.3
99999.3
99999.3
99999.2
99999.1
99998.9
99998.3
99996.9
99993.8
99987.1
99973.7
99947.5
99898.9
99812.8
99667.6
99433.9
99075.5
98551.5
97820.2
96844.4
95596.3
94061.5
92240.2
90147.1
87808.3
85258.1
82534.8
79678.2
76726.5
73715.1
70675.7
67635.6
64618.4
61644
58728.8
55886.6
53129.1
50466.1
47906.2
45457.6
43128.4
40927.1
38863.9
36950.8
35202.9
33638.1
32276.9
31138.9
30237
29569.2
29113.2
28828
28664.4
28577.8
28534.5
28513.7
28504.2
28500.4
28499.6
28500.5
28502.5
28505.2
28508.4
28511.8
28515.5
28519.5
28523.6
28528
28532.5
28537.1
28542.2
28548.4
28555.5
28548.6
28441.7
27945.5
26459.2
23376.7
18955.6
14653.4
11860.5
10613.3
10183.7
10053
10015
10004.2
10001.1
10000.3
10000
9999.95
9999.94
9999.93
9999.93
9999.93
9999.93
)
;

boundaryField
{
    sides
    {
        type            zeroGradient;
    }
    empty
    {
        type            empty;
    }
}


// ************************************************************************* //
