/*--------------------------------*- C++ -*----------------------------------*\
| =========                 |                                                 |
| \\      /  F ield         | OpenFOAM: The Open Source CFD Toolbox           |
|  \\    /   O peration     | Version:  2312                                  |
|   \\  /    A nd           | Website:  www.openfoam.com                      |
|    \\/     M anipulation  |                                                 |
\*---------------------------------------------------------------------------*/
FoamFile
{
    version     2.0;
    format      ascii;
    arch        "LSB;label=32;scalar=64";
    class       volScalarField;
    location    "0.006";
    object      p;
}
// * * * * * * * * * * * * * * * * * * * * * * * * * * * * * * * * * * * * * //

dimensions      [1 -1 -2 0 0 0 0];

internalField   nonuniform List<scalar> 
100
(
100207
100207
100207
100207
100207
100207
100207
100207
100207
100207
100206
100206
100204
100201
100194
100181
100154
100105
100017
99870.1
99633.5
99271.3
98742.4
98005.2
97022.5
95767
94224.3
92395
90294.2
87947.9
85390.6
82660.8
79798.2
76840.9
73824.4
70780.2
67735.7
64714.5
61736.3
58817.6
55972.2
53211.6
50545.7
47983.2
45532.2
43200.5
40996.9
38931.4
37016
35265.7
33698.6
32334.9
31194.5
30290.4
29621
29164.1
28878.9
28716.4
28631.4
28590.1
28571.2
28563.3
28560.5
28560.3
28561.5
28563.4
28566
28568.9
28572.1
28575.6
28579.3
28583.3
28587.4
28591.6
28596.1
28600.8
28606.6
28613.2
28606.7
28505.1
28029.3
26588
23561.9
19163.3
14820
11957.8
10663.4
10213.9
10076.6
10036.6
10025.2
10021.9
10021
10020.8
10020.7
10020.7
10020.7
10020.7
10020.7
10020.7
)
;

boundaryField
{
    sides
    {
        type            zeroGradient;
    }
    empty
    {
        type            empty;
    }
}


// ************************************************************************* //
