/*--------------------------------*- C++ -*----------------------------------*\
| =========                 |                                                 |
| \\      /  F ield         | OpenFOAM: The Open Source CFD Toolbox           |
|  \\    /   O peration     | Version:  2312                                  |
|   \\  /    A nd           | Website:  www.openfoam.com                      |
|    \\/     M anipulation  |                                                 |
\*---------------------------------------------------------------------------*/
FoamFile
{
    version     2.0;
    format      ascii;
    arch        "LSB;label=32;scalar=64";
    class       volScalarField;
    location    "0.006";
    object      rho;
}
// * * * * * * * * * * * * * * * * * * * * * * * * * * * * * * * * * * * * * //

dimensions      [1 -3 0 0 0 0 0];

internalField   nonuniform List<scalar> 
100
(
1.16102
1.16102
1.16102
1.16102
1.16102
1.16102
1.16102
1.16102
1.16102
1.16102
1.16102
1.16101
1.161
1.16097
1.16092
1.1608
1.16058
1.16017
1.15945
1.15823
1.15627
1.15326
1.14886
1.14271
1.13449
1.12395
1.11092
1.09539
1.07742
1.0572
1.03497
1.01101
0.98563
0.959116
0.931755
0.903803
0.875491
0.847023
0.818575
0.790303
0.762342
0.734815
0.707833
0.681501
0.655922
0.631209
0.607482
0.584885
0.563591
0.543809
0.525791
0.509817
0.496157
0.484989
0.476295
0.469765
0.464803
0.460605
0.456293
0.450988
0.443875
0.434284
0.421808
0.406424
0.388554
0.368996
0.348775
0.328948
0.310432
0.293904
0.279761
0.268139
0.258964
0.252006
0.246947
0.243428
0.241099
0.239639
0.238698
0.237582
0.23448
0.225732
0.207328
0.179819
0.151229
0.131038
0.121252
0.117681
0.116563
0.116234
0.116139
0.116112
0.116105
0.116103
0.116102
0.116102
0.116102
0.116102
0.116102
0.116102
)
;

boundaryField
{
    sides
    {
        type            zeroGradient;
    }
    empty
    {
        type            empty;
    }
}


// ************************************************************************* //
