/*--------------------------------*- C++ -*----------------------------------*\
| =========                 |                                                 |
| \\      /  F ield         | OpenFOAM: The Open Source CFD Toolbox           |
|  \\    /   O peration     | Version:  2212                                  |
|   \\  /    A nd           | Website:  www.openfoam.com                      |
|    \\/     M anipulation  |                                                 |
\*---------------------------------------------------------------------------*/
FoamFile
{
    version     2.0;
    format      ascii;
    arch        "LSB;label=32;scalar=64";
    class       volScalarField;
    location    "0.006";
    object      rho;
}
// * * * * * * * * * * * * * * * * * * * * * * * * * * * * * * * * * * * * * //

dimensions      [1 -3 0 0 0 0 0];

internalField   nonuniform List<scalar> 
100
(
1.16102
1.16102
1.16102
1.16102
1.16102
1.16102
1.16102
1.16102
1.16102
1.16102
1.16102
1.16101
1.161
1.16097
1.16092
1.16081
1.16059
1.16019
1.15947
1.15827
1.15632
1.15334
1.14897
1.14286
1.13468
1.12418
1.1112
1.0957
1.07777
1.05757
1.03536
1.01141
0.986034
0.95952
0.932154
0.904193
0.875868
0.847384
0.818918
0.790626
0.762645
0.735097
0.708092
0.681737
0.656136
0.631401
0.607655
0.58504
0.56373
0.543937
0.525912
0.509935
0.496275
0.48511
0.476416
0.469879
0.464899
0.460669
0.45631
0.450944
0.443761
0.434093
0.42154
0.406089
0.388166
0.368576
0.348347
0.328533
0.310049
0.293565
0.279471
0.267901
0.258772
0.251856
0.246832
0.243341
0.241035
0.239594
0.238662
0.237522
0.2343
0.225269
0.206475
0.178734
0.150295
0.130502
0.121032
0.117608
0.11654
0.116227
0.116137
0.116112
0.116105
0.116103
0.116102
0.116102
0.116102
0.116102
0.116102
0.116102
)
;

boundaryField
{
    sides
    {
        type            zeroGradient;
    }
    empty
    {
        type            empty;
    }
}


// ************************************************************************* //
