/*--------------------------------*- C++ -*----------------------------------*\
| =========                 |                                                 |
| \\      /  F ield         | OpenFOAM: The Open Source CFD Toolbox           |
|  \\    /   O peration     | Version:  2312                                  |
|   \\  /    A nd           | Website:  www.openfoam.com                      |
|    \\/     M anipulation  |                                                 |
\*---------------------------------------------------------------------------*/
FoamFile
{
    version     2.0;
    format      ascii;
    arch        "LSB;label=32;scalar=64";
    class       volScalarField;
    location    "0.006";
    object      rho;
}
// * * * * * * * * * * * * * * * * * * * * * * * * * * * * * * * * * * * * * //

dimensions      [1 -3 0 0 0 0 0];

internalField   nonuniform List<scalar> 
100
(
1.12266
1.1153
1.10717
1.09834
1.08888
1.07882
1.06821
1.0571
1.04556
1.03362
1.02135
1.00878
0.995965
0.982938
0.96974
0.956403
0.942957
0.929432
0.91585
0.902236
0.888609
0.874988
0.86139
0.84783
0.834322
0.820878
0.807512
0.794235
0.781057
0.767988
0.75504
0.742223
0.729548
0.717025
0.704667
0.692487
0.680499
0.668721
0.657171
0.645871
0.634847
0.624129
0.613753
0.603761
0.594203
0.585133
0.576615
0.568718
0.561512
0.555062
0.549423
0.544624
0.540665
0.537505
0.535065
0.533236
0.531891
0.530904
0.530158
0.529554
0.529014
0.528475
0.527882
0.527179
0.526302
0.525168
0.523666
0.521651
0.518932
0.515282
0.510437
0.50412
0.496074
0.486093
0.474066
0.460009
0.444078
0.426568
0.407888
0.388516
0.368959
0.349703
0.331183
0.313754
0.29769
0.283179
0.270327
0.25917
0.249675
0.241746
0.235235
0.229957
0.225716
0.222326
0.219628
0.217495
0.21583
0.214557
0.213623
0.213033
)
;

boundaryField
{
    sides
    {
        type            zeroGradient;
    }
    empty
    {
        type            empty;
    }
}


// ************************************************************************* //
