/*--------------------------------*- C++ -*----------------------------------*\
| =========                 |                                                 |
| \\      /  F ield         | OpenFOAM: The Open Source CFD Toolbox           |
|  \\    /   O peration     | Version:  2312                                  |
|   \\  /    A nd           | Website:  www.openfoam.com                      |
|    \\/     M anipulation  |                                                 |
\*---------------------------------------------------------------------------*/
FoamFile
{
    version     2.0;
    format      ascii;
    arch        "LSB;label=32;scalar=64";
    class       volScalarField;
    location    "0.006";
    object      T;
}
// * * * * * * * * * * * * * * * * * * * * * * * * * * * * * * * * * * * * * //

dimensions      [0 0 0 1 0 0 0];

internalField   nonuniform List<scalar> 
100
(
300
300
300
300
300
300
300
300
300
300
300
299.999
299.998
299.995
299.989
299.978
299.955
299.913
299.838
299.712
299.509
299.199
298.744
298.109
297.259
296.165
294.81
293.186
291.297
289.154
286.777
284.188
281.412
278.474
275.398
272.208
268.924
265.564
262.147
258.688
255.203
251.705
248.209
244.73
241.284
237.892
234.575
231.362
228.291
225.408
222.772
220.455
218.536
217.088
216.166
215.79
215.961
216.703
218.104
220.351
223.734
228.611
235.35
244.257
255.501
269.062
284.686
301.877
319.918
337.951
355.082
370.522
383.706
394.359
402.501
408.386
412.414
415.023
416.564
417.035
415.498
409.407
395.017
370.423
340.625
317.188
305.682
301.68
300.481
300.137
300.038
300.011
300.003
300.001
300
300
300
300
300
300
)
;

boundaryField
{
    sides
    {
        type            zeroGradient;
    }
    empty
    {
        type            empty;
    }
}


// ************************************************************************* //
