/*--------------------------------*- C++ -*----------------------------------*\
| =========                 |                                                 |
| \\      /  F ield         | OpenFOAM: The Open Source CFD Toolbox           |
|  \\    /   O peration     | Version:  2312                                  |
|   \\  /    A nd           | Website:  www.openfoam.com                      |
|    \\/     M anipulation  |                                                 |
\*---------------------------------------------------------------------------*/
FoamFile
{
    version     2.0;
    format      ascii;
    arch        "LSB;label=32;scalar=64";
    class       volScalarField;
    location    "0.006";
    object      T;
}
// * * * * * * * * * * * * * * * * * * * * * * * * * * * * * * * * * * * * * //

dimensions      [0 0 0 1 0 0 0];

internalField   nonuniform List<scalar> 
100
(
293.397
292.123
290.716
289.187
287.544
285.794
283.945
282.005
279.982
277.884
275.72
273.496
271.22
268.899
266.537
264.141
261.716
259.266
256.795
254.307
251.805
249.292
246.772
244.247
241.719
239.191
236.664
234.142
231.626
229.117
226.619
224.132
221.66
219.205
216.769
214.356
211.967
209.608
207.282
204.995
202.751
200.56
198.428
196.365
194.384
192.498
190.722
189.074
187.57
186.228
185.062
184.084
183.295
182.69
182.254
181.966
181.8
181.73
181.734
181.795
181.903
182.052
182.244
182.489
182.802
183.21
183.751
184.478
185.461
186.791
188.581
190.96
194.074
198.075
203.116
209.338
216.864
225.782
236.138
247.93
261.091
275.494
290.943
307.186
323.922
340.823
357.559
373.806
389.267
403.67
416.776
428.388
438.38
446.71
453.437
458.705
462.718
465.696
467.826
469.153
)
;

boundaryField
{
    sides
    {
        type            zeroGradient;
    }
    empty
    {
        type            empty;
    }
}


// ************************************************************************* //
