/*--------------------------------*- C++ -*----------------------------------*\
| =========                 |                                                 |
| \\      /  F ield         | OpenFOAM: The Open Source CFD Toolbox           |
|  \\    /   O peration     | Version:  2212                                  |
|   \\  /    A nd           | Website:  www.openfoam.com                      |
|    \\/     M anipulation  |                                                 |
\*---------------------------------------------------------------------------*/
FoamFile
{
    version     2.0;
    format      ascii;
    arch        "LSB;label=32;scalar=64";
    class       volScalarField;
    location    "0.006";
    object      T;
}
// * * * * * * * * * * * * * * * * * * * * * * * * * * * * * * * * * * * * * //

dimensions      [0 0 0 1 0 0 0];

internalField   nonuniform List<scalar> 
100
(
300
300
300
300
300
300
300
300
300
300
300
299.999
299.998
299.995
299.99
299.978
299.956
299.914
299.84
299.716
299.515
299.207
298.756
298.125
297.278
296.189
294.839
293.219
291.333
289.194
286.819
284.231
281.457
278.519
275.444
272.253
268.968
265.607
262.189
258.728
255.24
251.74
248.241
244.759
241.311
237.915
234.595
231.379
228.306
225.42
222.783
220.466
218.547
217.101
216.181
215.808
215.983
216.73
218.139
220.4
223.805
228.713
235.492
244.445
255.741
269.352
285.021
302.244
320.301
338.331
355.441
370.847
383.987
394.594
402.693
408.541
412.539
415.124
416.644
417.076
415.435
409.11
394.347
369.398
339.591
316.556
305.432
301.6
300.457
300.129
300.036
300.01
300.003
300.001
300
300
300
300
300
300
)
;

boundaryField
{
    sides
    {
        type            zeroGradient;
    }
    empty
    {
        type            empty;
    }
}


// ************************************************************************* //
