/*--------------------------------*- C++ -*----------------------------------*\
| =========                 |                                                 |
| \\      /  F ield         | OpenFOAM: The Open Source CFD Toolbox           |
|  \\    /   O peration     | Version:  2312                                  |
|   \\  /    A nd           | Website:  www.openfoam.com                      |
|    \\/     M anipulation  |                                                 |
\*---------------------------------------------------------------------------*/
FoamFile
{
    version     2.0;
    format      ascii;
    arch        "LSB;label=32;scalar=64";
    class       volScalarField;
    location    "0.006";
    object      thermo:e;
}
// * * * * * * * * * * * * * * * * * * * * * * * * * * * * * * * * * * * * * //

dimensions      [0 2 -2 0 0 0 0];

internalField   nonuniform List<scalar> 
100
(
522687
520418
517910
515187
512261
509143
505848
502392
498787
495050
491195
487233
483179
479043
474836
470568
466247
461882
457480
453047
448590
444114
439625
435126
430623
426119
421618
417124
412641
408172
403721
399292
394888
390514
386175
381875
377620
373417
369273
365198
361202
357297
353499
349825
346296
342936
339772
336835
334155
331764
329688
327945
326540
325462
324685
324172
323876
323752
323759
323868
324060
324325
324668
325104
325662
326389
327353
328647
330398
332769
335957
340196
345742
352870
361850
372936
386343
402230
420681
441687
465134
490792
518316
547252
577066
607177
636991
665935
693479
719139
742486
763174
780974
795813
807797
817183
824332
829637
833431
835796
)
;

boundaryField
{
    sides
    {
        type            zeroGradient;
    }
    empty
    {
        type            empty;
    }
}


// ************************************************************************* //
