/*--------------------------------*- C++ -*----------------------------------*\
| =========                 |                                                 |
| \\      /  F ield         | OpenFOAM: The Open Source CFD Toolbox           |
|  \\    /   O peration     | Version:  2312                                  |
|   \\  /    A nd           | Website:  www.openfoam.com                      |
|    \\/     M anipulation  |                                                 |
\*---------------------------------------------------------------------------*/
FoamFile
{
    version     2.0;
    format      ascii;
    arch        "LSB;label=32;scalar=64";
    class       volScalarField;
    location    "0.006";
    object      thermo:e;
}
// * * * * * * * * * * * * * * * * * * * * * * * * * * * * * * * * * * * * * //

dimensions      [0 2 -2 0 0 0 0];

internalField   nonuniform List<scalar> 
100
(
215760
215760
215760
215760
215760
215760
215760
215760
215760
215760
215760
215759
215758
215757
215752
215744
215727
215697
215643
215553
215407
215184
214857
214400
213788
213002
212027
210860
209501
207960
206250
204388
202391
200279
198067
195772
193410
190994
188536
186049
183542
181026
178512
176010
173532
171092
168706
166396
164187
162113
160218
158551
157171
156130
155467
155196
155319
155853
156860
158476
160909
164417
169264
175669
183756
193509
204746
217110
230085
243054
255375
266480
275961
283623
289478
293712
296608
298484
299593
299931
298826
294445
284097
266408
244978
228122
219846
216968
216106
215858
215788
215768
215762
215761
215760
215760
215760
215760
215760
215760
)
;

boundaryField
{
    sides
    {
        type            zeroGradient;
    }
    empty
    {
        type            empty;
    }
}


// ************************************************************************* //
