/*--------------------------------*- C++ -*----------------------------------*\
| =========                 |                                                 |
| \\      /  F ield         | OpenFOAM: The Open Source CFD Toolbox           |
|  \\    /   O peration     | Version:  2212                                  |
|   \\  /    A nd           | Website:  www.openfoam.com                      |
|    \\/     M anipulation  |                                                 |
\*---------------------------------------------------------------------------*/
FoamFile
{
    version     2.0;
    format      ascii;
    arch        "LSB;label=32;scalar=64";
    class       volScalarField;
    location    "0.006";
    object      thermo:e;
}
// * * * * * * * * * * * * * * * * * * * * * * * * * * * * * * * * * * * * * //

dimensions      [0 2 -2 0 0 0 0];

internalField   nonuniform List<scalar> 
100
(
215310
215310
215310
215310
215310
215310
215310
215310
215310
215310
215310
215309
215309
215307
215303
215294
215278
215248
215195
215106
214962
214741
214417
213964
213357
212575
211606
210443
209090
207554
205850
203993
202001
199893
197686
195396
193038
190626
188173
185689
183186
180674
178163
175664
173189
170752
168369
166061
163855
161784
159891
158228
156851
155814
155153
154885
155011
155547
156558
158181
160625
164147
169012
175438
183545
193314
204560
216920
229880
242820
255100
266157
275588
283200
289012
293210
296079
297935
299025
299335
298158
293618
283023
265117
243725
227192
219209
216459
215638
215403
215336
215317
215312
215311
215310
215310
215310
215310
215310
215310
)
;

boundaryField
{
    sides
    {
        type            zeroGradient;
    }
    empty
    {
        type            empty;
    }
}


// ************************************************************************* //
