/*--------------------------------*- C++ -*----------------------------------*\
| =========                 |                                                 |
| \\      /  F ield         | OpenFOAM: The Open Source CFD Toolbox           |
|  \\    /   O peration     | Version:  2212                                  |
|   \\  /    A nd           | Website:  www.openfoam.com                      |
|    \\/     M anipulation  |                                                 |
\*---------------------------------------------------------------------------*/
FoamFile
{
    version     2.0;
    format      ascii;
    arch        "LSB;label=32;scalar=64";
    class       volVectorField;
    location    "0.006";
    object      U;
}
// * * * * * * * * * * * * * * * * * * * * * * * * * * * * * * * * * * * * * //

dimensions      [0 1 -1 0 0 0 0];

internalField   nonuniform List<vector> 
100
(
(1.31677e-08 0 0)
(4.82205e-08 0 0)
(1.69991e-07 0 0)
(5.76838e-07 0 0)
(1.88388e-06 0 0)
(5.92048e-06 0 0)
(1.79012e-05 0 0)
(5.20644e-05 0 0)
(0.000145621 0 0)
(0.000391576 0 0)
(0.00101202 0 0)
(0.00251304 0 0)
(0.00599368 0 0)
(0.0137248 0 0)
(0.0301625 0 0)
(0.0635915 0 0)
(0.128569 0 0)
(0.24919 0 0)
(0.462901 0 0)
(0.824099 0 0)
(1.40635 0 0)
(2.30173 0 0)
(3.61637 0 0)
(5.46194 0 0)
(7.94456 0 0)
(11.1535 0 0)
(15.1521 0 0)
(19.9735 0 0)
(25.6203 0 0)
(32.0685 0 0)
(39.2742 0 0)
(47.1798 0 0)
(55.7208 0 0)
(64.8305 0 0)
(74.4434 0 0)
(84.4974 0 0)
(94.935 0 0)
(105.703 0 0)
(116.753 0 0)
(128.039 0 0)
(139.517 0 0)
(151.145 0 0)
(162.878 0 0)
(174.668 0 0)
(186.46 0 0)
(198.189 0 0)
(209.772 0 0)
(221.106 0 0)
(232.055 0 0)
(242.447 0 0)
(252.069 0 0)
(260.674 0 0)
(268.014 0 0)
(273.901 0 0)
(278.278 0 0)
(281.265 0 0)
(283.128 0 0)
(284.196 0 0)
(284.77 0 0)
(285.069 0 0)
(285.227 0 0)
(285.316 0 0)
(285.372 0 0)
(285.411 0 0)
(285.443 0 0)
(285.472 0 0)
(285.499 0 0)
(285.528 0 0)
(285.558 0 0)
(285.591 0 0)
(285.626 0 0)
(285.664 0 0)
(285.705 0 0)
(285.748 0 0)
(285.794 0 0)
(285.845 0 0)
(285.91 0 0)
(285.976 0 0)
(285.811 0 0)
(284.251 0 0)
(277.739 0 0)
(259.388 0 0)
(221.525 0 0)
(162.688 0 0)
(95.2488 0 0)
(42.1891 0 0)
(14.7278 0 0)
(4.51121 0 0)
(1.31128 0 0)
(0.373452 0 0)
(0.105169 0 0)
(0.0293227 0 0)
(0.00808472 0 0)
(0.00219999 0 0)
(0.000589568 0 0)
(0.000155265 0 0)
(4.00998e-05 0 0)
(1.01371e-05 0 0)
(2.50391e-06 0 0)
(6.03354e-07 0 0)
)
;

boundaryField
{
    sides
    {
        type            zeroGradient;
    }
    empty
    {
        type            empty;
    }
}


// ************************************************************************* //
