/*--------------------------------*- C++ -*----------------------------------*\
| =========                 |                                                 |
| \\      /  F ield         | OpenFOAM: The Open Source CFD Toolbox           |
|  \\    /   O peration     | Version:  2312                                  |
|   \\  /    A nd           | Website:  www.openfoam.com                      |
|    \\/     M anipulation  |                                                 |
\*---------------------------------------------------------------------------*/
FoamFile
{
    version     2.0;
    format      ascii;
    arch        "LSB;label=32;scalar=64";
    class       volVectorField;
    location    "0.006";
    object      U;
}
// * * * * * * * * * * * * * * * * * * * * * * * * * * * * * * * * * * * * * //

dimensions      [0 1 -1 0 0 0 0];

internalField   nonuniform List<vector> 
100
(
(1.37739e-08 0 0)
(5.03721e-08 0 0)
(1.7732e-07 0 0)
(6.0079e-07 0 0)
(1.95898e-06 0 0)
(6.14635e-06 0 0)
(1.85528e-05 0 0)
(5.38668e-05 0 0)
(0.000150401 0 0)
(0.000403726 0 0)
(0.0010416 0 0)
(0.00258203 0 0)
(0.00614768 0 0)
(0.0140537 0 0)
(0.030834 0 0)
(0.0649017 0 0)
(0.13101 0 0)
(0.253531 0 0)
(0.470264 0 0)
(0.836014 0 0)
(1.42474 0 0)
(2.32884 0 0)
(3.65456 0 0)
(5.51348 0 0)
(8.01138 0 0)
(11.237 0 0)
(15.2531 0 0)
(20.0921 0 0)
(25.7561 0 0)
(32.2208 0 0)
(39.442 0 0)
(47.3621 0 0)
(55.9165 0 0)
(65.0384 0 0)
(74.6626 0 0)
(84.7271 0 0)
(95.1743 0 0)
(105.951 0 0)
(117.009 0 0)
(128.302 0 0)
(139.787 0 0)
(151.421 0 0)
(163.16 0 0)
(174.955 0 0)
(186.751 0 0)
(198.484 0 0)
(210.072 0 0)
(221.41 0 0)
(232.364 0 0)
(242.763 0 0)
(252.393 0 0)
(261.007 0 0)
(268.357 0 0)
(274.254 0 0)
(278.639 0 0)
(281.628 0 0)
(283.487 0 0)
(284.547 0 0)
(285.107 0 0)
(285.391 0 0)
(285.535 0 0)
(285.613 0 0)
(285.661 0 0)
(285.696 0 0)
(285.726 0 0)
(285.753 0 0)
(285.781 0 0)
(285.809 0 0)
(285.84 0 0)
(285.872 0 0)
(285.907 0 0)
(285.945 0 0)
(285.985 0 0)
(286.028 0 0)
(286.072 0 0)
(286.121 0 0)
(286.183 0 0)
(286.245 0 0)
(286.09 0 0)
(284.608 0 0)
(278.356 0 0)
(260.557 0 0)
(223.467 0 0)
(165.249 0 0)
(97.7066 0 0)
(43.7471 0 0)
(15.3927 0 0)
(4.73587 0 0)
(1.38063 0 0)
(0.394304 0 0)
(0.111398 0 0)
(0.0311775 0 0)
(0.00863399 0 0)
(0.00236112 0 0)
(0.000636183 0 0)
(0.000168507 0 0)
(4.37797e-05 0 0)
(1.1134e-05 0 0)
(2.76653e-06 0 0)
(6.70467e-07 0 0)
)
;

boundaryField
{
    sides
    {
        type            zeroGradient;
    }
    empty
    {
        type            empty;
    }
}


// ************************************************************************* //
