/*--------------------------------*- C++ -*----------------------------------*\
| =========                 |                                                 |
| \\      /  F ield         | OpenFOAM: The Open Source CFD Toolbox           |
|  \\    /   O peration     | Version:  2312                                  |
|   \\  /    A nd           | Website:  www.openfoam.com                      |
|    \\/     M anipulation  |                                                 |
\*---------------------------------------------------------------------------*/
FoamFile
{
    version     2.0;
    format      ascii;
    arch        "LSB;label=32;scalar=64";
    class       volVectorField;
    location    "0.006";
    object      U;
}
// * * * * * * * * * * * * * * * * * * * * * * * * * * * * * * * * * * * * * //

dimensions      [0 1 -1 0 0 0 0];

internalField   nonuniform List<vector> 
100
(
(25.8981 0 0)
(30.8503 0 0)
(36.3629 0 0)
(42.3843 0 0)
(48.8912 0 0)
(55.8569 0 0)
(63.2521 0 0)
(71.0467 0 0)
(79.2102 0 0)
(87.7128 0 0)
(96.5258 0 0)
(105.622 0 0)
(114.976 0 0)
(124.564 0 0)
(134.365 0 0)
(144.359 0 0)
(154.526 0 0)
(164.852 0 0)
(175.32 0 0)
(185.916 0 0)
(196.629 0 0)
(207.446 0 0)
(218.356 0 0)
(229.35 0 0)
(240.418 0 0)
(251.55 0 0)
(262.739 0 0)
(273.976 0 0)
(285.252 0 0)
(296.558 0 0)
(307.887 0 0)
(319.227 0 0)
(330.57 0 0)
(341.904 0 0)
(353.216 0 0)
(364.493 0 0)
(375.718 0 0)
(386.872 0 0)
(397.932 0 0)
(408.873 0 0)
(419.661 0 0)
(430.259 0 0)
(440.622 0 0)
(450.696 0 0)
(460.416 0 0)
(469.709 0 0)
(478.491 0 0)
(486.672 0 0)
(494.157 0 0)
(500.856 0 0)
(506.696 0 0)
(511.632 0 0)
(515.655 0 0)
(518.806 0 0)
(521.169 0 0)
(522.861 0 0)
(524.016 0 0)
(524.768 0 0)
(525.235 0 0)
(525.51 0 0)
(525.664 0 0)
(525.745 0 0)
(525.782 0 0)
(525.796 0 0)
(525.797 0 0)
(525.792 0 0)
(525.785 0 0)
(525.777 0 0)
(525.77 0 0)
(525.764 0 0)
(525.76 0 0)
(525.757 0 0)
(525.757 0 0)
(525.758 0 0)
(525.761 0 0)
(525.766 0 0)
(525.773 0 0)
(525.781 0 0)
(525.791 0 0)
(525.801 0 0)
(525.808 0 0)
(525.805 0 0)
(525.775 0 0)
(525.684 0 0)
(525.472 0 0)
(525.046 0 0)
(524.293 0 0)
(523.097 0 0)
(521.391 0 0)
(519.2 0 0)
(516.67 0 0)
(514.045 0 0)
(511.602 0 0)
(509.569 0 0)
(508.063 0 0)
(507.08 0 0)
(506.525 0 0)
(506.265 0 0)
(506.178 0 0)
(506.177 0 0)
)
;

boundaryField
{
    sides
    {
        type            zeroGradient;
    }
    empty
    {
        type            empty;
    }
}


// ************************************************************************* //
