/*--------------------------------*- C++ -*----------------------------------*\
| =========                 |                                                 |
| \\      /  F ield         | OpenFOAM: The Open Source CFD Toolbox           |
|  \\    /   O peration     | Version:  2312                                  |
|   \\  /    A nd           | Website:  www.openfoam.com                      |
|    \\/     M anipulation  |                                                 |
\*---------------------------------------------------------------------------*/
FoamFile
{
    version     2.0;
    format      ascii;
    arch        "LSB;label=32;scalar=64";
    class       volScalarField;
    location    "0.079";
    object      rho;
}
// * * * * * * * * * * * * * * * * * * * * * * * * * * * * * * * * * * * * * //

dimensions      [1 -3 0 0 0 0 0];

internalField   nonuniform List<scalar> 
100
(
0.439599
0.426931
0.415679
0.406332
0.396519
0.388599
0.380408
0.373918
0.367424
0.362304
0.35741
0.353567
0.350094
0.347415
0.345157
0.343508
0.342268
0.3415
0.341093
0.341052
0.341305
0.341836
0.34259
0.343541
0.344647
0.345879
0.347202
0.348591
0.350016
0.351457
0.352891
0.354303
0.355677
0.357006
0.35828
0.359498
0.360655
0.361758
0.36281
0.363829
0.364835
0.365875
0.367022
0.368418
0.370307
0.3731
0.37741
0.384002
0.393485
0.405804
0.419901
0.433997
0.446406
0.456186
0.463259
0.468069
0.471229
0.473271
0.474589
0.475438
0.475977
0.476296
0.476445
0.476454
0.476334
0.476096
0.475745
0.475287
0.474731
0.474088
0.473371
0.472598
0.471785
0.470953
0.470119
0.469304
0.46852
0.467788
0.467109
0.466506
0.465961
0.465508
0.465107
0.464801
0.464533
0.464357
0.464203
0.464132
0.464073
0.464085
0.464106
0.464188
0.464284
0.464431
0.464607
0.464825
0.46509
0.465393
0.465757
0.46617
)
;

boundaryField
{
    sides
    {
        type            zeroGradient;
    }
    empty
    {
        type            empty;
    }
}


// ************************************************************************* //
