/*--------------------------------*- C++ -*----------------------------------*\
| =========                 |                                                 |
| \\      /  F ield         | OpenFOAM: The Open Source CFD Toolbox           |
|  \\    /   O peration     | Version:  2312                                  |
|   \\  /    A nd           | Website:  www.openfoam.com                      |
|    \\/     M anipulation  |                                                 |
\*---------------------------------------------------------------------------*/
FoamFile
{
    version     2.0;
    format      ascii;
    arch        "LSB;label=32;scalar=64";
    class       volScalarField;
    location    "0.008";
    object      p;
}
// * * * * * * * * * * * * * * * * * * * * * * * * * * * * * * * * * * * * * //

dimensions      [1 -1 -2 0 0 0 0];

internalField   nonuniform List<scalar> 
100
(
99999.7
99999.4
99998.6
99997.1
99994.1
99988.4
99977.8
99958.9
99926.4
99872.4
99785.8
99652
99452.7
99166.7
98770.5
98240.5
97555
96696.2
95652
94416.9
92992.2
91385.7
89610.4
87683.2
85623.7
83452.5
81190.6
78858
76473.7
74055
71617.5
69175
66739.4
64321.2
61929.3
59571.3
57253.4
54981.1
52758.8
50590.2
48478.5
46426.3
44435.8
42509.3
40648.8
38856.8
37136.2
35491.3
33929.1
32461.3
31110.1
29921.3
29000.5
28572.2
28509.3
28494
28484.4
28478.3
28474.7
28472.8
28472
28472.1
28472.8
28474
28475.6
28477.4
28479.4
28481.6
28483.9
28486.2
28488.6
28491
28493.4
28495.9
28498.3
28500.8
28503.4
28506
28508.7
28511.4
28514.2
28516.8
28519.2
28520.8
28520.5
28516.1
28503
28471.8
28403.3
28258.7
27962.6
27375
26261.9
24312.8
21320.2
17566.1
14012.2
11646
10551.5
10166.2
)
;

boundaryField
{
    sides
    {
        type            zeroGradient;
    }
    empty
    {
        type            empty;
    }
}


// ************************************************************************* //
