/*--------------------------------*- C++ -*----------------------------------*\
| =========                 |                                                 |
| \\      /  F ield         | OpenFOAM: The Open Source CFD Toolbox           |
|  \\    /   O peration     | Version:  2212                                  |
|   \\  /    A nd           | Website:  www.openfoam.com                      |
|    \\/     M anipulation  |                                                 |
\*---------------------------------------------------------------------------*/
FoamFile
{
    version     2.0;
    format      ascii;
    arch        "LSB;label=32;scalar=64";
    class       volScalarField;
    location    "0.008";
    object      p;
}
// * * * * * * * * * * * * * * * * * * * * * * * * * * * * * * * * * * * * * //

dimensions      [1 -1 -2 0 0 0 0];

internalField   nonuniform List<scalar> 
100
(
99999.7
99999.4
99998.6
99997.1
99994
99988.2
99977.4
99958.1
99925
99870
99781.9
99646
99443.7
99153.6
98752.3
98216
97523.1
96656
95602.7
94358.1
92923.9
91307.9
89523.5
87587.9
85520.7
83342.6
81074.6
78736.7
76348
73925.7
71485.3
69040.5
66603.3
64184
61791.4
59433.1
57115.4
54843.5
52622
50454.4
48344
46293.2
44304.6
42380
40521.9
38732.5
37015.1
35374.2
33817
32356
31014.8
29841.8
28946.3
28543.7
28486.7
28472.7
28463.3
28456.2
28450.8
28446.8
28444.2
28443.2
28443.6
28444.8
28446.6
28448.8
28451.1
28453.5
28456
28458.6
28461.2
28463.8
28466.3
28468.9
28471.6
28474.2
28476.9
28479.7
28482.5
28485.4
28488.4
28491.3
28493.9
28495.7
28495.7
28491.8
28479.5
28449.4
28382.6
28241.3
27950.9
27373.3
26276.9
24352.5
21386.7
17646.4
14079.8
11684.3
10567
10171.4
)
;

boundaryField
{
    sides
    {
        type            zeroGradient;
    }
    empty
    {
        type            empty;
    }
}


// ************************************************************************* //
