/*--------------------------------*- C++ -*----------------------------------*\
| =========                 |                                                 |
| \\      /  F ield         | OpenFOAM: The Open Source CFD Toolbox           |
|  \\    /   O peration     | Version:  2312                                  |
|   \\  /    A nd           | Website:  www.openfoam.com                      |
|    \\/     M anipulation  |                                                 |
\*---------------------------------------------------------------------------*/
FoamFile
{
    version     2.0;
    format      ascii;
    arch        "LSB;label=32;scalar=64";
    class       volScalarField;
    location    "0.008";
    object      p;
}
// * * * * * * * * * * * * * * * * * * * * * * * * * * * * * * * * * * * * * //

dimensions      [1 -1 -2 0 0 0 0];

internalField   nonuniform List<scalar> 
100
(
77791.5
76442.4
75101.7
73761.1
72422.7
71088.4
69759.9
68438.6
67126
65823.3
64531.4
63251.3
61983.7
60729.4
59489
58262.9
57051.6
55855.6
54675
53510.3
52361.7
51229.4
50113.5
49014.3
47931.8
46866.3
45817.9
44786.7
43772.7
42776.3
41797.4
40836.2
39893
38968
38061.4
37173.7
36305.3
35456.9
34629.3
33823.7
33041.5
32285
31557.1
30862
30205.7
29596.5
29045.9
28569.2
28183.9
27905.1
27734.6
27652.1
27620.2
27607.5
27600.7
27596.6
27594.6
27594.1
27594.5
27595.7
27597.3
27599.2
27601.3
27603.4
27605.5
27607.5
27609.5
27611.4
27613.2
27615
27616.7
27618.4
27620
27621.5
27623
27624.4
27625.9
27627.5
27629.5
27633.1
27640.2
27654.7
27682.4
27729.5
27799.3
27889.2
27988.9
28084.2
28163.1
28220.1
28257.1
28280.7
28298.3
28316.4
28339.4
28369.8
28409.2
28458.2
28516.6
28659.8
)
;

boundaryField
{
    sides
    {
        type            zeroGradient;
    }
    empty
    {
        type            empty;
    }
}


// ************************************************************************* //
