/*--------------------------------*- C++ -*----------------------------------*\
| =========                 |                                                 |
| \\      /  F ield         | OpenFOAM: The Open Source CFD Toolbox           |
|  \\    /   O peration     | Version:  2212                                  |
|   \\  /    A nd           | Website:  www.openfoam.com                      |
|    \\/     M anipulation  |                                                 |
\*---------------------------------------------------------------------------*/
FoamFile
{
    version     2.0;
    format      ascii;
    arch        "LSB;label=32;scalar=64";
    class       volScalarField;
    location    "0.008";
    object      p;
}
// * * * * * * * * * * * * * * * * * * * * * * * * * * * * * * * * * * * * * //

dimensions      [1 -1 -2 0 0 0 0];

internalField   nonuniform List<scalar> 
100
(
100000
100000
100000
100000
100000
100000
100000
100000
100000
100000
100000
100000
100000
100000
100000
100000
100000
100000
100000
100000
100000
99980.7
99298.9
95687.9
90094.2
85193.4
81243
77817.1
74654.8
71650
68765.4
65986.8
63306.9
60720.3
58222.5
55809.3
53477.3
51223.2
49044.4
46938.6
44904
42939.1
41043
39214.9
37454.7
35762.6
34140.4
32593.3
31130.5
29780.4
28620.4
27882.6
28524.5
28608.1
28423.1
28321.5
28312
28373.2
28384.8
28380.9
28390.1
28399.9
28384.3
28371.3
28409.3
28420.7
28420.5
28429.6
28429.4
28418.7
28442.2
28515
28585
28532.8
28822.4
28862.2
28236.6
28078.9
28068.3
28059.3
28170.3
28700.8
29081
29092.7
28930.3
28309.9
27994.8
27958.2
27931.5
28030.6
28610.6
29064.2
29098.9
28783.8
22475
11208.5
10001.9
10000
10000
10000
)
;

boundaryField
{
    sides
    {
        type            zeroGradient;
    }
    empty
    {
        type            empty;
    }
}


// ************************************************************************* //
