/*--------------------------------*- C++ -*----------------------------------*\
| =========                 |                                                 |
| \\      /  F ield         | OpenFOAM: The Open Source CFD Toolbox           |
|  \\    /   O peration     | Version:  2212                                  |
|   \\  /    A nd           | Website:  www.openfoam.com                      |
|    \\/     M anipulation  |                                                 |
\*---------------------------------------------------------------------------*/
FoamFile
{
    version     2.0;
    format      ascii;
    arch        "LSB;label=32;scalar=64";
    class       volScalarField;
    location    "0.008";
    object      rho;
}
// * * * * * * * * * * * * * * * * * * * * * * * * * * * * * * * * * * * * * //

dimensions      [1 -3 0 0 0 0 0];

internalField   nonuniform List<scalar> 
100
(
1.16103
1.16103
1.16103
1.16103
1.16103
1.16103
1.16103
1.16103
1.16103
1.16103
1.16103
1.16103
1.16103
1.16103
1.16103
1.16103
1.16103
1.16103
1.16103
1.16103
1.16103
1.16087
1.15522
1.12519
1.07814
1.03623
1.00192
0.97177
0.943589
0.916486
0.890153
0.864481
0.839421
0.814938
0.791005
0.767598
0.744696
0.722282
0.700341
0.678864
0.657845
0.637282
0.617178
0.597537
0.578373
0.559702
0.541561
0.524024
0.50722
0.491505
0.477836
0.469068
0.476665
0.477699
0.475534
0.474274
0.474248
0.474955
0.475159
0.475146
0.475304
0.475559
0.475712
0.476217
0.477055
0.477246
0.477043
0.476338
0.473886
0.467223
0.45162
0.418961
0.364734
0.301633
0.257357
0.238063
0.231085
0.230038
0.230265
0.23086
0.232244
0.236105
0.238814
0.23924
0.238707
0.235253
0.233673
0.233735
0.233859
0.234749
0.238439
0.240925
0.240788
0.238341
0.198974
0.124479
0.116116
0.116103
0.116103
0.116103
)
;

boundaryField
{
    sides
    {
        type            calculated;
        value           nonuniform List<scalar> 2(0.116103 1.16103);
    }
    empty
    {
        type            empty;
    }
}


// ************************************************************************* //
