/*--------------------------------*- C++ -*----------------------------------*\
| =========                 |                                                 |
| \\      /  F ield         | OpenFOAM: The Open Source CFD Toolbox           |
|  \\    /   O peration     | Version:  2312                                  |
|   \\  /    A nd           | Website:  www.openfoam.com                      |
|    \\/     M anipulation  |                                                 |
\*---------------------------------------------------------------------------*/
FoamFile
{
    version     2.0;
    format      ascii;
    arch        "LSB;label=32;scalar=64";
    class       volScalarField;
    location    "0.008";
    object      rho;
}
// * * * * * * * * * * * * * * * * * * * * * * * * * * * * * * * * * * * * * //

dimensions      [1 -3 0 0 0 0 0];

internalField   nonuniform List<scalar> 
100
(
0.241184
0.238663
0.236137
0.233591
0.231028
0.228452
0.225867
0.223275
0.22068
0.218084
0.215489
0.212896
0.210309
0.207727
0.205153
0.202587
0.200031
0.197486
0.194953
0.192432
0.189924
0.18743
0.184951
0.182488
0.18004
0.17761
0.175196
0.172801
0.170424
0.168067
0.165731
0.163415
0.161121
0.158851
0.156605
0.154385
0.152194
0.150032
0.147903
0.145812
0.143762
0.141761
0.139818
0.137946
0.136162
0.134492
0.132969
0.13164
0.130557
0.129765
0.129272
0.129024
0.128917
0.128862
0.128823
0.12879
0.128762
0.128736
0.128712
0.128687
0.128662
0.128634
0.128605
0.128572
0.128535
0.128493
0.128444
0.128388
0.128322
0.128242
0.128145
0.128025
0.127872
0.127674
0.127414
0.127071
0.126617
0.126018
0.125234
0.124223
0.122944
0.121363
0.119453
0.117202
0.114603
0.111653
0.108355
0.104727
0.100817
0.0967004
0.0924765
0.0882494
0.0841152
0.0801535
0.0764251
0.0729738
0.0698301
0.0670235
0.0646236
0.0629971
)
;

boundaryField
{
    sides
    {
        type            calculated;
        value           nonuniform List<scalar> 2(0.0629971 0.241184);
    }
    empty
    {
        type            empty;
    }
}


// ************************************************************************* //
