/*--------------------------------*- C++ -*----------------------------------*\
| =========                 |                                                 |
| \\      /  F ield         | OpenFOAM: The Open Source CFD Toolbox           |
|  \\    /   O peration     | Version:  2212                                  |
|   \\  /    A nd           | Website:  www.openfoam.com                      |
|    \\/     M anipulation  |                                                 |
\*---------------------------------------------------------------------------*/
FoamFile
{
    version     2.0;
    format      ascii;
    arch        "LSB;label=32;scalar=64";
    class       volScalarField;
    location    "0.008";
    object      rho;
}
// * * * * * * * * * * * * * * * * * * * * * * * * * * * * * * * * * * * * * //

dimensions      [1 -3 0 0 0 0 0];

internalField   nonuniform List<scalar> 
100
(
1.16103
1.16102
1.16102
1.161
1.16098
1.16093
1.16084
1.16068
1.16041
1.15996
1.15923
1.1581
1.15643
1.15403
1.15071
1.14625
1.14049
1.13325
1.12443
1.11397
1.10185
1.08813
1.0729
1.05626
1.03837
1.01937
0.999439
0.978715
0.957351
0.935485
0.913243
0.890738
0.868071
0.845332
0.8226
0.799943
0.777424
0.755094
0.733
0.711185
0.689685
0.668535
0.647768
0.627416
0.607514
0.5881
0.569223
0.550949
0.533379
0.516675
0.501135
0.487359
0.476673
0.471674
0.47068
0.470135
0.469569
0.468932
0.468177
0.467237
0.466012
0.464343
0.461995
0.458645
0.4539
0.447343
0.43861
0.427484
0.413975
0.398357
0.381149
0.363037
0.344777
0.327083
0.310557
0.295638
0.282594
0.271533
0.26243
0.255158
0.249524
0.245294
0.242221
0.240062
0.238595
0.237618
0.236953
0.236428
0.235843
0.234913
0.233157
0.229724
0.223194
0.211608
0.193396
0.169669
0.145943
0.129022
0.12062
0.117496
)
;

boundaryField
{
    sides
    {
        type            calculated;
        value           nonuniform List<scalar> 2(0.117496 1.16103);
    }
    empty
    {
        type            empty;
    }
}


// ************************************************************************* //
