/*--------------------------------*- C++ -*----------------------------------*\
| =========                 |                                                 |
| \\      /  F ield         | OpenFOAM: The Open Source CFD Toolbox           |
|  \\    /   O peration     | Version:  2312                                  |
|   \\  /    A nd           | Website:  www.openfoam.com                      |
|    \\/     M anipulation  |                                                 |
\*---------------------------------------------------------------------------*/
FoamFile
{
    version     2.0;
    format      ascii;
    arch        "LSB;label=32;scalar=64";
    class       volScalarField;
    location    "0.008";
    object      rho;
}
// * * * * * * * * * * * * * * * * * * * * * * * * * * * * * * * * * * * * * //

dimensions      [1 -3 0 0 0 0 0];

internalField   nonuniform List<scalar> 
100
(
1.15862
1.15862
1.15861
1.1586
1.15857
1.15853
1.15844
1.15828
1.15801
1.15757
1.15685
1.15574
1.15409
1.15171
1.14842
1.14401
1.13829
1.1311
1.12233
1.11192
1.09986
1.08618
1.07099
1.05439
1.03653
1.01755
0.997635
0.976922
0.955564
0.9337
0.911456
0.888947
0.866274
0.843528
0.820787
0.798123
0.775595
0.753258
0.731158
0.709338
0.687834
0.666681
0.645912
0.625559
0.605654
0.586237
0.567353
0.549067
0.531473
0.514726
0.499106
0.485179
0.474223
0.468938
0.467884
0.467334
0.466779
0.466172
0.465461
0.464579
0.463424
0.461842
0.459608
0.456413
0.451878
0.445593
0.437191
0.42644
0.413326
0.398095
0.381239
0.363423
0.345391
0.327857
0.311427
0.296553
0.283515
0.272433
0.263294
0.25598
0.250302
0.246031
0.242922
0.240734
0.239243
0.238246
0.237565
0.237022
0.236417
0.235458
0.233653
0.230134
0.223457
0.211641
0.193138
0.169162
0.145365
0.128548
0.120274
0.117219
)
;

boundaryField
{
    sides
    {
        type            calculated;
        value           nonuniform List<scalar> 2(0.117219 1.15862);
    }
    empty
    {
        type            empty;
    }
}


// ************************************************************************* //
