/*--------------------------------*- C++ -*----------------------------------*\
| =========                 |                                                 |
| \\      /  F ield         | OpenFOAM: The Open Source CFD Toolbox           |
|  \\    /   O peration     | Version:  2312                                  |
|   \\  /    A nd           | Website:  www.openfoam.com                      |
|    \\/     M anipulation  |                                                 |
\*---------------------------------------------------------------------------*/
FoamFile
{
    version     2.0;
    format      ascii;
    arch        "LSB;label=32;scalar=64";
    class       volScalarField;
    location    "0.008";
    object      T;
}
// * * * * * * * * * * * * * * * * * * * * * * * * * * * * * * * * * * * * * //

dimensions      [0 0 0 1 0 0 0];

internalField   nonuniform List<scalar> 
100
(
271.548
269.657
267.762
265.849
263.921
261.979
260.026
258.062
256.089
254.109
252.122
250.129
248.133
246.133
244.131
242.127
240.123
238.119
236.115
234.113
232.112
230.114
228.119
226.127
224.139
222.156
220.178
218.206
216.24
214.281
212.329
210.386
208.452
206.529
204.617
202.718
200.834
198.967
197.119
195.295
193.499
191.737
190.019
188.356
186.765
185.271
183.906
182.714
181.746
181.047
180.626
180.435
180.377
180.37
180.381
180.4
180.427
180.459
180.497
180.539
180.585
180.636
180.691
180.751
180.817
180.889
180.97
181.062
181.168
181.291
181.44
181.621
181.849
182.142
182.522
183.024
183.69
184.575
185.744
187.28
189.276
191.844
195.106
199.191
204.222
210.295
217.47
225.77
235.186
245.694
257.253
269.799
283.237
297.427
312.189
327.305
342.516
357.474
371.51
383.015
)
;

boundaryField
{
    sides
    {
        type            zeroGradient;
    }
    empty
    {
        type            empty;
    }
}


// ************************************************************************* //
