/*--------------------------------*- C++ -*----------------------------------*\
| =========                 |                                                 |
| \\      /  F ield         | OpenFOAM: The Open Source CFD Toolbox           |
|  \\    /   O peration     | Version:  2212                                  |
|   \\  /    A nd           | Website:  www.openfoam.com                      |
|    \\/     M anipulation  |                                                 |
\*---------------------------------------------------------------------------*/
FoamFile
{
    version     2.0;
    format      ascii;
    arch        "LSB;label=32;scalar=64";
    class       volScalarField;
    location    "0.008";
    object      T;
}
// * * * * * * * * * * * * * * * * * * * * * * * * * * * * * * * * * * * * * //

dimensions      [0 0 0 1 0 0 0];

internalField   nonuniform List<scalar> 
100
(
300
300
300
300
300
300
300
300
300
300
300
300
300
300
300
300
300
300
300
300
300
299.983
299.394
296.207
291.063
286.362
282.433
278.917
275.574
272.304
269.072
265.868
262.685
259.521
256.375
253.243
250.123
247.016
243.918
240.831
237.753
234.685
231.629
228.586
225.56
222.554
219.576
216.641
213.774
211.041
208.622
207.044
208.434
208.593
208.187
207.994
207.936
208.075
208.07
208.048
208.046
208.006
207.825
207.509
207.423
207.423
207.51
207.883
208.957
211.858
219.358
237.063
272.977
329.48
390.084
422.282
425.602
425.153
424.572
423.343
422.484
423.4
424.145
423.56
422.135
419.148
417.285
416.63
416.01
415.903
417.94
420.184
420.926
420.643
393.429
313.629
300.022
300
300
300
)
;

boundaryField
{
    sides
    {
        type            zeroGradient;
    }
    empty
    {
        type            empty;
    }
}


// ************************************************************************* //
