/*--------------------------------*- C++ -*----------------------------------*\
| =========                 |                                                 |
| \\      /  F ield         | OpenFOAM: The Open Source CFD Toolbox           |
|  \\    /   O peration     | Version:  2312                                  |
|   \\  /    A nd           | Website:  www.openfoam.com                      |
|    \\/     M anipulation  |                                                 |
\*---------------------------------------------------------------------------*/
FoamFile
{
    version     2.0;
    format      ascii;
    arch        "LSB;label=32;scalar=64";
    class       volScalarField;
    location    "0.008";
    object      T;
}
// * * * * * * * * * * * * * * * * * * * * * * * * * * * * * * * * * * * * * //

dimensions      [0 0 0 1 0 0 0];

internalField   nonuniform List<scalar> 
100
(
300
299.999
299.999
299.998
299.995
299.99
299.981
299.965
299.937
299.891
299.816
299.702
299.531
299.285
298.944
298.487
297.894
297.147
296.235
295.147
293.882
292.441
290.828
289.054
287.129
285.066
282.877
280.575
278.173
275.683
273.116
270.481
267.787
265.044
262.258
259.436
256.584
253.707
250.811
247.9
244.979
242.052
239.124
236.2
233.285
230.387
227.513
224.678
221.899
219.207
216.657
214.359
212.562
211.783
211.793
211.929
212.109
212.34
212.637
213.026
213.552
214.284
215.331
216.847
219.035
222.139
226.425
232.151
239.535
248.72
259.739
272.495
286.746
302.107
318.073
334.055
349.449
363.696
376.356
387.147
395.968
402.879
408.068
411.8
414.363
416.032
417.035
417.531
417.592
417.159
415.978
413.463
408.504
399.299
383.696
360.941
335.049
314.901
304.935
301.458
)
;

boundaryField
{
    sides
    {
        type            zeroGradient;
    }
    empty
    {
        type            empty;
    }
}


// ************************************************************************* //
