/*--------------------------------*- C++ -*----------------------------------*\
| =========                 |                                                 |
| \\      /  F ield         | OpenFOAM: The Open Source CFD Toolbox           |
|  \\    /   O peration     | Version:  2212                                  |
|   \\  /    A nd           | Website:  www.openfoam.com                      |
|    \\/     M anipulation  |                                                 |
\*---------------------------------------------------------------------------*/
FoamFile
{
    version     2.0;
    format      ascii;
    arch        "LSB;label=32;scalar=64";
    class       volScalarField;
    location    "0.008";
    object      T;
}
// * * * * * * * * * * * * * * * * * * * * * * * * * * * * * * * * * * * * * //

dimensions      [0 0 0 1 0 0 0];

internalField   nonuniform List<scalar> 
100
(
300
299.999
299.999
299.997
299.995
299.99
299.98
299.964
299.935
299.887
299.811
299.693
299.517
299.264
298.915
298.446
297.839
297.075
296.143
295.033
293.743
292.274
290.632
288.827
286.869
284.772
282.548
280.211
277.773
275.247
272.643
269.972
267.242
264.462
261.64
258.782
255.894
252.981
250.05
247.105
244.149
241.189
238.228
235.272
232.326
229.398
226.496
223.635
220.833
218.123
215.565
213.275
211.513
210.782
210.805
210.946
211.13
211.364
211.664
212.06
212.599
213.356
214.442
216.018
218.291
221.507
225.936
231.836
239.422
248.831
260.089
273.089
287.579
303.164
319.326
335.472
350.99
365.323
378.033
388.845
397.666
404.565
409.735
413.446
415.99
417.643
418.632
419.12
419.174
418.736
417.552
415.035
410.069
400.844
385.177
362.257
336.029
315.432
305.139
301.524
)
;

boundaryField
{
    sides
    {
        type            zeroGradient;
    }
    empty
    {
        type            empty;
    }
}


// ************************************************************************* //
