/*--------------------------------*- C++ -*----------------------------------*\
| =========                 |                                                 |
| \\      /  F ield         | OpenFOAM: The Open Source CFD Toolbox           |
|  \\    /   O peration     | Version:  2212                                  |
|   \\  /    A nd           | Website:  www.openfoam.com                      |
|    \\/     M anipulation  |                                                 |
\*---------------------------------------------------------------------------*/
FoamFile
{
    version     2.0;
    format      ascii;
    arch        "LSB;label=32;scalar=64";
    class       volScalarField;
    location    "0.008";
    object      thermo:psi;
}
// * * * * * * * * * * * * * * * * * * * * * * * * * * * * * * * * * * * * * //

dimensions      [0 -2 2 0 0 0 0];

internalField   nonuniform List<scalar> 
100
(
1.16103e-05
1.16103e-05
1.16103e-05
1.16104e-05
1.16105e-05
1.16107e-05
1.1611e-05
1.16117e-05
1.16128e-05
1.16147e-05
1.16176e-05
1.16222e-05
1.1629e-05
1.16388e-05
1.16524e-05
1.16707e-05
1.16945e-05
1.17246e-05
1.17615e-05
1.18057e-05
1.18576e-05
1.19172e-05
1.19845e-05
1.20594e-05
1.21417e-05
1.22311e-05
1.23274e-05
1.24302e-05
1.25393e-05
1.26544e-05
1.27753e-05
1.29017e-05
1.30335e-05
1.31704e-05
1.33125e-05
1.34596e-05
1.36115e-05
1.37681e-05
1.39295e-05
1.40956e-05
1.42662e-05
1.44413e-05
1.46208e-05
1.48045e-05
1.49922e-05
1.51836e-05
1.53781e-05
1.55749e-05
1.57725e-05
1.59684e-05
1.6158e-05
1.63314e-05
1.64675e-05
1.65246e-05
1.65228e-05
1.65118e-05
1.64974e-05
1.64791e-05
1.64557e-05
1.6425e-05
1.63834e-05
1.63253e-05
1.62425e-05
1.6124e-05
1.59562e-05
1.57245e-05
1.54163e-05
1.50239e-05
1.45479e-05
1.39978e-05
1.33919e-05
1.27544e-05
1.21117e-05
1.14891e-05
1.09076e-05
1.03826e-05
9.92361e-06
9.53427e-06
9.21371e-06
8.9575e-06
8.75881e-06
8.60946e-06
8.50081e-06
8.42451e-06
8.373e-06
8.33987e-06
8.32015e-06
8.31048e-06
8.30941e-06
8.31808e-06
8.34167e-06
8.39226e-06
8.49389e-06
8.68939e-06
9.04281e-06
9.61494e-06
1.03654e-05
1.10423e-05
1.14147e-05
1.15516e-05
)
;

boundaryField
{
    sides
    {
        type            calculated;
        value           nonuniform List<scalar> 2(1.15516e-05 1.16103e-05);
    }
    empty
    {
        type            empty;
    }
}


// ************************************************************************* //
