/*--------------------------------*- C++ -*----------------------------------*\
| =========                 |                                                 |
| \\      /  F ield         | OpenFOAM: The Open Source CFD Toolbox           |
|  \\    /   O peration     | Version:  2212                                  |
|   \\  /    A nd           | Website:  www.openfoam.com                      |
|    \\/     M anipulation  |                                                 |
\*---------------------------------------------------------------------------*/
FoamFile
{
    version     2.0;
    format      ascii;
    arch        "LSB;label=32;scalar=64";
    class       volScalarField;
    location    "0.008";
    object      thermo:psi;
}
// * * * * * * * * * * * * * * * * * * * * * * * * * * * * * * * * * * * * * //

dimensions      [0 -2 2 0 0 0 0];

internalField   nonuniform List<scalar> 
100
(
1.16103e-05
1.16103e-05
1.16103e-05
1.16103e-05
1.16103e-05
1.16103e-05
1.16103e-05
1.16103e-05
1.16103e-05
1.16103e-05
1.16103e-05
1.16103e-05
1.16103e-05
1.16103e-05
1.16103e-05
1.16103e-05
1.16103e-05
1.16103e-05
1.16103e-05
1.16103e-05
1.16103e-05
1.16109e-05
1.16338e-05
1.1759e-05
1.19668e-05
1.21632e-05
1.23324e-05
1.24879e-05
1.26394e-05
1.27912e-05
1.29448e-05
1.31008e-05
1.32596e-05
1.34212e-05
1.35859e-05
1.37539e-05
1.39255e-05
1.41007e-05
1.42797e-05
1.44628e-05
1.465e-05
1.48415e-05
1.50373e-05
1.52375e-05
1.54419e-05
1.56505e-05
1.58627e-05
1.60777e-05
1.62933e-05
1.65043e-05
1.66956e-05
1.68229e-05
1.67107e-05
1.6698e-05
1.67306e-05
1.67461e-05
1.67508e-05
1.67396e-05
1.67399e-05
1.67418e-05
1.67419e-05
1.67451e-05
1.67597e-05
1.67852e-05
1.67922e-05
1.67922e-05
1.67852e-05
1.6755e-05
1.66689e-05
1.64407e-05
1.58785e-05
1.46926e-05
1.27596e-05
1.05714e-05
8.92906e-06
8.24825e-06
8.1839e-06
8.19255e-06
8.20375e-06
8.22757e-06
8.24429e-06
8.22645e-06
8.21202e-06
8.22336e-06
8.25111e-06
8.30991e-06
8.34702e-06
8.36014e-06
8.37259e-06
8.37476e-06
8.33394e-06
8.28943e-06
8.27482e-06
8.28038e-06
8.85314e-06
1.11058e-05
1.16094e-05
1.16103e-05
1.16103e-05
1.16103e-05
)
;

boundaryField
{
    sides
    {
        type            calculated;
        value           nonuniform List<scalar> 2(1.16103e-05 1.16103e-05);
    }
    empty
    {
        type            empty;
    }
}


// ************************************************************************* //
