/*--------------------------------*- C++ -*----------------------------------*\
| =========                 |                                                 |
| \\      /  F ield         | OpenFOAM: The Open Source CFD Toolbox           |
|  \\    /   O peration     | Version:  2312                                  |
|   \\  /    A nd           | Website:  www.openfoam.com                      |
|    \\/     M anipulation  |                                                 |
\*---------------------------------------------------------------------------*/
FoamFile
{
    version     2.0;
    format      ascii;
    arch        "LSB;label=32;scalar=64";
    class       volVectorField;
    location    "0.008";
    object      U;
}
// * * * * * * * * * * * * * * * * * * * * * * * * * * * * * * * * * * * * * //

dimensions      [0 1 -1 0 0 0 0];

internalField   nonuniform List<vector> 
100
(
(115.229 0 0)
(122.723 0 0)
(130.286 0 0)
(137.969 0 0)
(145.765 0 0)
(153.665 0 0)
(161.662 0 0)
(169.749 0 0)
(177.921 0 0)
(186.172 0 0)
(194.495 0 0)
(202.887 0 0)
(211.342 0 0)
(219.856 0 0)
(228.426 0 0)
(237.047 0 0)
(245.715 0 0)
(254.428 0 0)
(263.181 0 0)
(271.973 0 0)
(280.8 0 0)
(289.658 0 0)
(298.546 0 0)
(307.461 0 0)
(316.4 0 0)
(325.361 0 0)
(334.341 0 0)
(343.337 0 0)
(352.346 0 0)
(361.365 0 0)
(370.392 0 0)
(379.422 0 0)
(388.452 0 0)
(397.475 0 0)
(406.487 0 0)
(415.48 0 0)
(424.447 0 0)
(433.375 0 0)
(442.251 0 0)
(451.057 0 0)
(459.768 0 0)
(468.354 0 0)
(476.769 0 0)
(484.952 0 0)
(492.816 0 0)
(500.24 0 0)
(507.056 0 0)
(513.043 0 0)
(517.942 0 0)
(521.524 0 0)
(523.73 0 0)
(524.806 0 0)
(525.226 0 0)
(525.398 0 0)
(525.495 0 0)
(525.555 0 0)
(525.589 0 0)
(525.604 0 0)
(525.607 0 0)
(525.6 0 0)
(525.587 0 0)
(525.572 0 0)
(525.554 0 0)
(525.536 0 0)
(525.518 0 0)
(525.502 0 0)
(525.486 0 0)
(525.472 0 0)
(525.459 0 0)
(525.447 0 0)
(525.436 0 0)
(525.426 0 0)
(525.417 0 0)
(525.409 0 0)
(525.402 0 0)
(525.397 0 0)
(525.391 0 0)
(525.385 0 0)
(525.372 0 0)
(525.34 0 0)
(525.261 0 0)
(525.083 0 0)
(524.727 0 0)
(524.106 0 0)
(523.165 0 0)
(521.933 0 0)
(520.541 0 0)
(519.178 0 0)
(518.015 0 0)
(517.139 0 0)
(516.532 0 0)
(516.11 0 0)
(515.764 0 0)
(515.397 0 0)
(514.938 0 0)
(514.337 0 0)
(513.561 0 0)
(512.594 0 0)
(511.43 0 0)
(511.461 0 0)
)
;

boundaryField
{
    sides
    {
        type            zeroGradient;
    }
    empty
    {
        type            empty;
    }
}


// ************************************************************************* //
