/*--------------------------------*- C++ -*----------------------------------*\
| =========                 |                                                 |
| \\      /  F ield         | OpenFOAM: The Open Source CFD Toolbox           |
|  \\    /   O peration     | Version:  2312                                  |
|   \\  /    A nd           | Website:  www.openfoam.com                      |
|    \\/     M anipulation  |                                                 |
\*---------------------------------------------------------------------------*/
FoamFile
{
    version     2.0;
    format      ascii;
    arch        "LSB;label=32;scalar=64";
    class       volVectorField;
    location    "0.008";
    object      U;
}
// * * * * * * * * * * * * * * * * * * * * * * * * * * * * * * * * * * * * * //

dimensions      [0 1 -1 0 0 0 0];

internalField   nonuniform List<vector> 
100
(
(0.00070055 0 0)
(0.00156791 0 0)
(0.00340227 0 0)
(0.00715599 0 0)
(0.014585 0 0)
(0.0287977 0 0)
(0.055069 0 0)
(0.101964 0 0)
(0.182762 0 0)
(0.317073 0 0)
(0.532412 0 0)
(0.865357 0 0)
(1.36183 0 0)
(2.0761 0 0)
(3.06834 0 0)
(4.40079 0 0)
(6.13315 0 0)
(8.31797 0 0)
(10.9968 0 0)
(14.1976 0 0)
(17.934 0 0)
(22.2063 0 0)
(27.0026 0 0)
(32.3018 0 0)
(38.0761 0 0)
(44.2936 0 0)
(50.9202 0 0)
(57.9217 0 0)
(65.2644 0 0)
(72.9167 0 0)
(80.8489 0 0)
(89.0337 0 0)
(97.4464 0 0)
(106.065 0 0)
(114.868 0 0)
(123.838 0 0)
(132.958 0 0)
(142.214 0 0)
(151.59 0 0)
(161.074 0 0)
(170.652 0 0)
(180.313 0 0)
(190.041 0 0)
(199.822 0 0)
(209.638 0 0)
(219.467 0 0)
(229.281 0 0)
(239.038 0 0)
(248.674 0 0)
(258.085 0 0)
(267.082 0 0)
(275.282 0 0)
(281.832 0 0)
(284.943 0 0)
(285.408 0 0)
(285.526 0 0)
(285.603 0 0)
(285.655 0 0)
(285.689 0 0)
(285.712 0 0)
(285.727 0 0)
(285.737 0 0)
(285.743 0 0)
(285.747 0 0)
(285.749 0 0)
(285.751 0 0)
(285.752 0 0)
(285.754 0 0)
(285.757 0 0)
(285.761 0 0)
(285.766 0 0)
(285.773 0 0)
(285.781 0 0)
(285.791 0 0)
(285.802 0 0)
(285.816 0 0)
(285.831 0 0)
(285.849 0 0)
(285.868 0 0)
(285.888 0 0)
(285.91 0 0)
(285.932 0 0)
(285.951 0 0)
(285.962 0 0)
(285.955 0 0)
(285.906 0 0)
(285.768 0 0)
(285.444 0 0)
(284.734 0 0)
(283.236 0 0)
(280.149 0 0)
(273.941 0 0)
(261.853 0 0)
(239.561 0 0)
(202.093 0 0)
(148.055 0 0)
(86.9317 0 0)
(38.5684 0 0)
(13.4335 0 0)
(4.10285 0 0)
)
;

boundaryField
{
    sides
    {
        type            zeroGradient;
    }
    empty
    {
        type            empty;
    }
}


// ************************************************************************* //
