/*--------------------------------*- C++ -*----------------------------------*\
| =========                 |                                                 |
| \\      /  F ield         | OpenFOAM: The Open Source CFD Toolbox           |
|  \\    /   O peration     | Version:  2212                                  |
|   \\  /    A nd           | Website:  www.openfoam.com                      |
|    \\/     M anipulation  |                                                 |
\*---------------------------------------------------------------------------*/
FoamFile
{
    version     2.0;
    format      ascii;
    arch        "LSB;label=32;scalar=64";
    class       volVectorField;
    location    "0.008";
    object      U;
}
// * * * * * * * * * * * * * * * * * * * * * * * * * * * * * * * * * * * * * //

dimensions      [0 1 -1 0 0 0 0];

internalField   nonuniform List<vector> 
100
(
(2.4565e-13 0 0)
(2.71184e-13 0 0)
(2.64204e-13 0 0)
(2.34973e-13 0 0)
(2.0327e-13 0 0)
(2.25466e-13 0 0)
(2.26879e-13 0 0)
(2.08902e-13 0 0)
(1.41404e-13 0 0)
(9.71786e-14 0 0)
(1.79981e-13 0 0)
(5.20341e-14 0 0)
(1.00365e-13 0 0)
(9.66072e-14 0 0)
(1.50841e-14 0 0)
(-7.85281e-14 0 0)
(-2.53043e-13 0 0)
(-2.95579e-13 0 0)
(-1.36868e-13 0 0)
(5.01424e-09 0 0)
(9.20243e-05 0 0)
(0.0477133 0 0)
(1.73875 0 0)
(10.8528 0 0)
(25.5697 0 0)
(39.1527 0 0)
(50.6032 0 0)
(60.9221 0 0)
(70.7941 0 0)
(80.509 0 0)
(90.1678 0 0)
(99.8043 0 0)
(109.433 0 0)
(119.062 0 0)
(128.699 0 0)
(138.351 0 0)
(148.023 0 0)
(157.72 0 0)
(167.447 0 0)
(177.206 0 0)
(186.996 0 0)
(196.817 0 0)
(206.666 0 0)
(216.537 0 0)
(226.421 0 0)
(236.304 0 0)
(246.161 0 0)
(255.948 0 0)
(265.566 0 0)
(274.805 0 0)
(283.049 0 0)
(288.428 0 0)
(283.753 0 0)
(283.141 0 0)
(284.464 0 0)
(285.265 0 0)
(285.313 0 0)
(284.883 0 0)
(284.761 0 0)
(284.772 0 0)
(284.695 0 0)
(284.613 0 0)
(284.744 0 0)
(284.927 0 0)
(284.639 0 0)
(284.494 0 0)
(284.45 0 0)
(284.357 0 0)
(284.376 0 0)
(284.528 0 0)
(284.535 0 0)
(284.647 0 0)
(285.108 0 0)
(284.776 0 0)
(287.913 0 0)
(288.548 0 0)
(281.887 0 0)
(280.24 0 0)
(280.05 0 0)
(279.82 0 0)
(280.972 0 0)
(286.328 0 0)
(290.107 0 0)
(290.056 0 0)
(288.325 0 0)
(281.982 0 0)
(278.881 0 0)
(278.664 0 0)
(278.652 0 0)
(279.874 0 0)
(285.961 0 0)
(290.587 0 0)
(291.069 0 0)
(288.225 0 0)
(218.801 0 0)
(28.7353 0 0)
(0.047369 0 0)
(1.84227e-07 0 0)
(-6.81955e-13 0 0)
(-1.00462e-12 0 0)
)
;

boundaryField
{
    sides
    {
        type            zeroGradient;
    }
    empty
    {
        type            empty;
    }
}


// ************************************************************************* //
