/*--------------------------------*- C++ -*----------------------------------*\
| =========                 |                                                 |
| \\      /  F ield         | OpenFOAM: The Open Source CFD Toolbox           |
|  \\    /   O peration     | Version:  2212                                  |
|   \\  /    A nd           | Website:  www.openfoam.com                      |
|    \\/     M anipulation  |                                                 |
\*---------------------------------------------------------------------------*/
FoamFile
{
    version     2.0;
    format      ascii;
    arch        "LSB;label=32;scalar=64";
    class       volVectorField;
    location    "0.008";
    object      U;
}
// * * * * * * * * * * * * * * * * * * * * * * * * * * * * * * * * * * * * * //

dimensions      [0 1 -1 0 0 0 0];

internalField   nonuniform List<vector> 
100
(
(0.000711619 0 0)
(0.00159329 0 0)
(0.00345822 0 0)
(0.00727459 0 0)
(0.0148268 0 0)
(0.0292719 0 0)
(0.0559634 0 0)
(0.103586 0 0)
(0.185589 0 0)
(0.321808 0 0)
(0.540035 0 0)
(0.877146 0 0)
(1.37935 0 0)
(2.10116 0 0)
(3.10281 0 0)
(4.44648 0 0)
(6.19162 0 0)
(8.39032 0 0)
(11.0835 0 0)
(14.2986 0 0)
(18.0485 0 0)
(22.3328 0 0)
(27.1392 0 0)
(32.4462 0 0)
(38.2258 0 0)
(44.4457 0 0)
(51.072 0 0)
(58.0703 0 0)
(65.4072 0 0)
(73.051 0 0)
(80.9721 0 0)
(89.1436 0 0)
(97.5406 0 0)
(106.141 0 0)
(114.925 0 0)
(123.873 0 0)
(132.971 0 0)
(142.201 0 0)
(151.551 0 0)
(161.007 0 0)
(170.557 0 0)
(180.186 0 0)
(189.881 0 0)
(199.628 0 0)
(209.408 0 0)
(219.198 0 0)
(228.969 0 0)
(238.678 0 0)
(248.258 0 0)
(257.6 0 0)
(266.504 0 0)
(274.569 0 0)
(280.915 0 0)
(283.826 0 0)
(284.247 0 0)
(284.355 0 0)
(284.431 0 0)
(284.49 0 0)
(284.538 0 0)
(284.577 0 0)
(284.605 0 0)
(284.623 0 0)
(284.633 0 0)
(284.637 0 0)
(284.638 0 0)
(284.639 0 0)
(284.639 0 0)
(284.64 0 0)
(284.642 0 0)
(284.645 0 0)
(284.65 0 0)
(284.656 0 0)
(284.665 0 0)
(284.675 0 0)
(284.687 0 0)
(284.701 0 0)
(284.717 0 0)
(284.735 0 0)
(284.755 0 0)
(284.777 0 0)
(284.8 0 0)
(284.823 0 0)
(284.844 0 0)
(284.858 0 0)
(284.854 0 0)
(284.809 0 0)
(284.678 0 0)
(284.365 0 0)
(283.675 0 0)
(282.211 0 0)
(279.187 0 0)
(273.094 0 0)
(261.212 0 0)
(239.267 0 0)
(202.296 0 0)
(148.778 0 0)
(87.8795 0 0)
(39.2657 0 0)
(13.7535 0 0)
(4.2146 0 0)
)
;

boundaryField
{
    sides
    {
        type            zeroGradient;
    }
    empty
    {
        type            empty;
    }
}


// ************************************************************************* //
