/*--------------------------------*- C++ -*----------------------------------*\
| =========                 |                                                 |
| \\      /  F ield         | OpenFOAM: The Open Source CFD Toolbox           |
|  \\    /   O peration     | Version:  2212                                  |
|   \\  /    A nd           | Website:  www.openfoam.com                      |
|    \\/     M anipulation  |                                                 |
\*---------------------------------------------------------------------------*/
FoamFile
{
    version     2.0;
    format      ascii;
    arch        "LSB;label=32;scalar=64";
    class       volScalarField;
    location    "0.002";
    object      G;
}
// * * * * * * * * * * * * * * * * * * * * * * * * * * * * * * * * * * * * * //

dimensions      [1 0 -3 0 0 0 0];

internalField   nonuniform List<scalar> 
100
(
1833.65
1833.37
1833.06
1832.71
1832.33
1831.92
1831.47
1830.97
1830.43
1829.83
1829.18
1828.47
1827.69
1826.85
1825.92
1824.91
1823.81
1822.61
1821.3
1819.86
1818.3
1816.6
1814.74
1812.71
1810.5
1808.09
1805.47
1802.6
1799.47
1796.06
1792.34
1788.29
1783.87
1779.05
1773.79
1768.07
1761.84
1755.09
1747.82
1740.07
1731.99
1723.82
1715.96
1708.98
1703.6
1700.67
1701.11
1705.88
1715.95
1732.21
1755.5
1786.49
1825.63
1872.94
1927.64
1987.74
2049.46
2106.87
2152.51
2179.75
2186.3
2175.8
2155.52
2131.88
2108.33
2086.12
2065.57
2046.66
2029.31
2013.39
1998.79
1985.4
1973.13
1961.87
1951.55
1942.08
1933.4
1925.45
1918.15
1911.46
1905.33
1899.71
1894.56
1889.84
1885.51
1881.55
1877.91
1874.59
1871.54
1868.75
1866.2
1863.86
1861.73
1859.77
1857.99
1856.37
1854.88
1853.53
1852.3
1851.19
)
;

boundaryField
{
    sides
    {
        type            myMarshakRadiation;
        refValue        nonuniform List<scalar> 2(1837.21 1837.21);
        refGradient     uniform 0;
        valueFraction   nonuniform List<scalar> 2(0.0361446 0.0361446);
        source          uniform 0;
        value           nonuniform List<scalar> 2(1850.68 1833.78);
    }
    empty
    {
        type            empty;
    }
}


// ************************************************************************* //
