/*--------------------------------*- C++ -*----------------------------------*\
| =========                 |                                                 |
| \\      /  F ield         | OpenFOAM: The Open Source CFD Toolbox           |
|  \\    /   O peration     | Version:  2212                                  |
|   \\  /    A nd           | Website:  www.openfoam.com                      |
|    \\/     M anipulation  |                                                 |
\*---------------------------------------------------------------------------*/
FoamFile
{
    version     2.0;
    format      ascii;
    arch        "LSB;label=32;scalar=64";
    class       volScalarField;
    location    "0.002";
    object      thermo:e;
}
// * * * * * * * * * * * * * * * * * * * * * * * * * * * * * * * * * * * * * //

dimensions      [0 2 -2 0 0 0 0];

internalField   nonuniform List<scalar> 
100
(
213576
213576
213576
213576
213576
213576
213576
213576
213576
213576
213576
213576
213576
213576
213576
213576
213576
213576
213576
213576
213576
213576
213576
213576
213576
213576
213576
213576
213576
213576
213576
213575
213573
213565
213545
213495
213380
213137
212667
211838
210503
208530
205838
202420
198335
193705
188693
183502
178382
173683
169967
168198
169965
177164
190242
208260
229130
249544
265378
272688
269098
255508
237785
224086
217282
214759
213938
213683
213607
213585
213579
213577
213577
213577
213577
213577
213577
213577
213577
213577
213576
213576
213576
213576
213576
213576
213576
213576
213576
213576
213576
213576
213576
213576
213576
213576
213576
213576
213576
213576
)
;

boundaryField
{
    sides
    {
        type            zeroGradient;
    }
    empty
    {
        type            empty;
    }
}


// ************************************************************************* //
