/*--------------------------------*- C++ -*----------------------------------*\
| =========                 |                                                 |
| \\      /  F ield         | OpenFOAM: The Open Source CFD Toolbox           |
|  \\    /   O peration     | Version:  2212                                  |
|   \\  /    A nd           | Website:  www.openfoam.com                      |
|    \\/     M anipulation  |                                                 |
\*---------------------------------------------------------------------------*/
FoamFile
{
    version     2.0;
    format      ascii;
    arch        "LSB;label=32;scalar=64";
    class       volVectorField;
    location    "0.002";
    object      U;
}
// * * * * * * * * * * * * * * * * * * * * * * * * * * * * * * * * * * * * * //

dimensions      [0 1 -1 0 0 0 0];

internalField   nonuniform List<vector> 
100
(
(9.95195e-08 0 0)
(1.43228e-07 0 0)
(1.79186e-07 0 0)
(2.10212e-07 0 0)
(2.3854e-07 0 0)
(2.65904e-07 0 0)
(2.93592e-07 0 0)
(3.22527e-07 0 0)
(3.53364e-07 0 0)
(3.86588e-07 0 0)
(4.22586e-07 0 0)
(4.61693e-07 0 0)
(5.04232e-07 0 0)
(5.50542e-07 0 0)
(6.00981e-07 0 0)
(6.55931e-07 0 0)
(7.15798e-07 0 0)
(7.8103e-07 0 0)
(8.52131e-07 0 0)
(9.29688e-07 0 0)
(1.01454e-06 0 0)
(1.10871e-06 0 0)
(1.21992e-06 0 0)
(1.3832e-06 0 0)
(1.7581e-06 0 0)
(3.04627e-06 0 0)
(8.18927e-06 0 0)
(2.88893e-05 0 0)
(0.000109178 0 0)
(0.000405253 0 0)
(0.00143766 0 0)
(0.00482951 0 0)
(0.015293 0 0)
(0.0454923 0 0)
(0.126714 0 0)
(0.329406 0 0)
(0.796658 0 0)
(1.78752 0 0)
(3.71442 0 0)
(7.14637 0 0)
(12.7528 0 0)
(21.1913 0 0)
(32.9796 0 0)
(48.406 0 0)
(67.5038 0 0)
(90.0755 0 0)
(115.72 0 0)
(143.838 0 0)
(173.563 0 0)
(203.555 0 0)
(231.708 0 0)
(255.119 0 0)
(271.116 0 0)
(279.439 0 0)
(282.475 0 0)
(282.775 0 0)
(281.132 0 0)
(276.561 0 0)
(265.766 0 0)
(243.004 0 0)
(202.664 0 0)
(145.563 0 0)
(84.4544 0 0)
(38.2994 0 0)
(14.1891 0 0)
(4.67398 0 0)
(1.4474 0 0)
(0.42957 0 0)
(0.122518 0 0)
(0.0335516 0 0)
(0.00883371 0 0)
(0.00225945 0 0)
(0.000585203 0 0)
(0.000175013 0 0)
(7.63922e-05 0 0)
(5.13371e-05 0 0)
(4.30839e-05 0 0)
(3.86873e-05 0 0)
(3.53095e-05 0 0)
(3.23405e-05 0 0)
(2.96415e-05 0 0)
(2.71698e-05 0 0)
(2.49027e-05 0 0)
(2.28225e-05 0 0)
(2.09135e-05 0 0)
(1.91614e-05 0 0)
(1.75529e-05 0 0)
(1.6076e-05 0 0)
(1.47195e-05 0 0)
(1.34728e-05 0 0)
(1.2326e-05 0 0)
(1.12685e-05 0 0)
(1.02888e-05 0 0)
(9.37203e-06 0 0)
(8.49778e-06 0 0)
(7.63618e-06 0 0)
(6.74374e-06 0 0)
(5.75865e-06 0 0)
(4.59651e-06 0 0)
(3.14411e-06 0 0)
)
;

boundaryField
{
    sides
    {
        type            zeroGradient;
    }
    empty
    {
        type            empty;
    }
}


// ************************************************************************* //
