/*--------------------------------*- C++ -*----------------------------------*\
| =========                 |                                                 |
| \\      /  F ield         | OpenFOAM: The Open Source CFD Toolbox           |
|  \\    /   O peration     | Version:  2212                                  |
|   \\  /    A nd           | Website:  www.openfoam.com                      |
|    \\/     M anipulation  |                                                 |
\*---------------------------------------------------------------------------*/
FoamFile
{
    version     2.0;
    format      ascii;
    arch        "LSB;label=32;scalar=64";
    class       volScalarField;
    location    "0.006";
    object      p;
}
// * * * * * * * * * * * * * * * * * * * * * * * * * * * * * * * * * * * * * //

dimensions      [1 -1 -2 0 0 0 0];

internalField   nonuniform List<scalar> 
100
(
100000
100000
100000
100000
100000
100000
100000
100000
100000
100000
100000
100000
100000
100000
100000
100000
100000
100000
100000
100000
100000
100000
100000
100000
100000
100000
100000
99998.9
99850.8
97835
92176.1
85813
80515.4
76030.6
71982.4
68195.2
64602.9
61178.9
57908.7
54781.5
51788.7
48923.2
46179.9
43555.1
41046.8
38654.8
36380.5
34226.3
32216.6
30371
28806.8
27803.8
28550.4
28626.1
28439.6
28320
28297.3
28364.2
28393.8
28386.1
28391.6
28396.9
28370.9
28338
28377.4
28427.7
28548.5
28558
28354
28987.9
28858.7
28272
28044.2
28008.7
27978.8
28039.6
28545.2
29056.1
29083.1
28914.7
28315.3
27985.1
27440.1
21293.2
11083
10001.9
10000
10000
10000
10000
10000
10000
10000
10000
10000
10000
10000
10000
10000
10000
)
;

boundaryField
{
    sides
    {
        type            zeroGradient;
    }
    empty
    {
        type            empty;
    }
}


// ************************************************************************* //
