/*--------------------------------*- C++ -*----------------------------------*\
| =========                 |                                                 |
| \\      /  F ield         | OpenFOAM: The Open Source CFD Toolbox           |
|  \\    /   O peration     | Version:  2212                                  |
|   \\  /    A nd           | Website:  www.openfoam.com                      |
|    \\/     M anipulation  |                                                 |
\*---------------------------------------------------------------------------*/
FoamFile
{
    version     2.0;
    format      ascii;
    arch        "LSB;label=32;scalar=64";
    class       volScalarField;
    location    "0.006";
    object      p;
}
// * * * * * * * * * * * * * * * * * * * * * * * * * * * * * * * * * * * * * //

dimensions      [1 -1 -2 0 0 0 0];

internalField   nonuniform List<scalar> 
100
(
100000
100000
100000
100000
100000
100000
100000
100000
99999.9
99999.8
99999.6
99999
99997.6
99994.6
99988.2
99975.2
99950
99903.4
99821.3
99683.1
99461.2
99121.6
98625.3
97932.4
97006.3
95818.5
94351.8
92602.7
90580.6
88306.2
85808.8
83122.8
80284.9
77331.8
74298.2
71216.1
68114
65016.5
61945.1
58917.7
55949.3
53052.5
50237.6
47513.3
44887.2
42366.1
39957
37667.9
35510
33501.8
31677.5
30109.4
28964.1
28545.3
28496.9
28483.3
28474.4
28468.1
28463.7
28460.9
28459.6
28459.9
28461.8
28464.8
28468.5
28472.5
28476.8
28481.2
28485.7
28490.1
28494.4
28498.2
28501.2
28502.1
28498.7
28486.1
28454.1
28381.4
28224.7
27898.7
27246.1
26009.7
23870.1
20673.1
16839.4
13434.2
11334.5
10429.9
10126.2
10035.7
10009.9
10002.7
10000.7
10000.2
10000.1
10000
10000
10000
10000
10000
)
;

boundaryField
{
    sides
    {
        type            zeroGradient;
    }
    empty
    {
        type            empty;
    }
}


// ************************************************************************* //
