/*--------------------------------*- C++ -*----------------------------------*\
| =========                 |                                                 |
| \\      /  F ield         | OpenFOAM: The Open Source CFD Toolbox           |
|  \\    /   O peration     | Version:  2312                                  |
|   \\  /    A nd           | Website:  www.openfoam.com                      |
|    \\/     M anipulation  |                                                 |
\*---------------------------------------------------------------------------*/
FoamFile
{
    version     2.0;
    format      ascii;
    arch        "LSB;label=32;scalar=64";
    class       volScalarField;
    location    "0.006";
    object      p;
}
// * * * * * * * * * * * * * * * * * * * * * * * * * * * * * * * * * * * * * //

dimensions      [1 -1 -2 0 0 0 0];

internalField   nonuniform List<scalar> 
100
(
100000
100000
100000
100000
100000
100000
100000
100000
99999.9
99999.8
99999.6
99999
99997.6
99994.6
99988.3
99975.4
99950.6
99904.6
99823.6
99687.1
99467.8
99132
98641.1
97955.1
97037.4
95859.3
94403.4
92665.5
90654.6
88391.2
85904
83227.1
80397.2
77450.9
74422.8
71345
68246.1
65150.8
62080.7
59053.8
56085.2
53187.5
50371.2
47645.1
45016.6
42492.6
40080
37786.5
35623.2
33607.5
31772.3
30186.7
29013.1
28571.2
28518.9
28503.9
28494.8
28489.4
28486.7
28485.8
28486.3
28487.8
28490.1
28493
28496.3
28500
28503.9
28507.9
28512.1
28516.2
28520.1
28523.6
28526.1
28526.5
28522.5
28509
28475.7
28400.9
28240.7
27909
27247.2
25996.6
23838.2
20623.6
16785
13393
11313.6
10422.2
10123.8
10035
10009.7
10002.7
10000.7
10000.2
10000.1
10000
10000
10000
10000
10000
)
;

boundaryField
{
    sides
    {
        type            zeroGradient;
    }
    empty
    {
        type            empty;
    }
}


// ************************************************************************* //
