/*--------------------------------*- C++ -*----------------------------------*\
| =========                 |                                                 |
| \\      /  F ield         | OpenFOAM: The Open Source CFD Toolbox           |
|  \\    /   O peration     | Version:  2312                                  |
|   \\  /    A nd           | Website:  www.openfoam.com                      |
|    \\/     M anipulation  |                                                 |
\*---------------------------------------------------------------------------*/
FoamFile
{
    version     2.0;
    format      ascii;
    arch        "LSB;label=32;scalar=64";
    class       volScalarField;
    location    "0.006";
    object      p;
}
// * * * * * * * * * * * * * * * * * * * * * * * * * * * * * * * * * * * * * //

dimensions      [1 -1 -2 0 0 0 0];

internalField   nonuniform List<scalar> 
100
(
94846.5
93850.9
92760.1
91578.4
90312.3
88969.3
87557.1
86084.1
84558.5
82988.4
81381.3
79744.6
78085
76408.6
74721.1
73027.6
71332.7
69640.3
67954.3
66277.7
64613.4
62963.8
61331.3
59717.6
58124.5
56553.4
55005.6
53482.2
51984
50512.1
49067
47649.6
46260.2
44899.6
43568.2
42266.7
40995.5
39755.4
38547.1
37371.7
36230.5
35125.2
34058.5
33033.9
32056.4
31133.7
30277.1
29503.1
28835.3
28303.6
27935.4
27733.8
27655
27630
27618.1
27610.8
27606.5
27604.3
27603.8
27604.3
27605.7
27607.6
27609.9
27612.3
27614.9
27617.4
27619.9
27622.4
27624.8
27627.1
27629.4
27631.7
27633.9
27636.1
27638.2
27640.3
27642.3
27644.2
27646.1
27647.9
27649.7
27651.5
27653.5
27656.2
27660.7
27668.9
27684.2
27710.9
27753.4
27813.8
27890.2
27975
28057
28125.5
28174.1
28203
28217.6
28224.5
28229.5
28241.5
)
;

boundaryField
{
    sides
    {
        type            zeroGradient;
    }
    empty
    {
        type            empty;
    }
}


// ************************************************************************* //
