/*--------------------------------*- C++ -*----------------------------------*\
| =========                 |                                                 |
| \\      /  F ield         | OpenFOAM: The Open Source CFD Toolbox           |
|  \\    /   O peration     | Version:  2212                                  |
|   \\  /    A nd           | Website:  www.openfoam.com                      |
|    \\/     M anipulation  |                                                 |
\*---------------------------------------------------------------------------*/
FoamFile
{
    version     2.0;
    format      ascii;
    arch        "LSB;label=32;scalar=64";
    class       volScalarField;
    location    "0.006";
    object      rho;
}
// * * * * * * * * * * * * * * * * * * * * * * * * * * * * * * * * * * * * * //

dimensions      [1 -3 0 0 0 0 0];

internalField   nonuniform List<scalar> 
100
(
1.16103
1.16103
1.16103
1.16103
1.16103
1.16103
1.16103
1.16103
1.16103
1.16103
1.16103
1.16103
1.16103
1.16103
1.16103
1.16103
1.16103
1.16103
1.16103
1.16103
1.16103
1.16103
1.16103
1.16103
1.16103
1.16103
1.16103
1.16102
1.15979
1.14306
1.09572
1.04157
0.995579
0.955942
0.919567
0.884989
0.851668
0.8194
0.788084
0.757651
0.728048
0.699234
0.671182
0.643884
0.617346
0.591596
0.566677
0.542654
0.519839
0.498515
0.480139
0.468231
0.476868
0.478089
0.475899
0.474394
0.474478
0.475861
0.476923
0.476989
0.476936
0.47635
0.474099
0.46883
0.457432
0.431293
0.383597
0.320185
0.26533
0.242206
0.235423
0.231204
0.230257
0.23058
0.231102
0.232076
0.235653
0.238956
0.239327
0.238697
0.235449
0.233815
0.230986
0.192781
0.123777
0.116116
0.116103
0.116103
0.116103
0.116103
0.116103
0.116103
0.116103
0.116103
0.116103
0.116103
0.116103
0.116103
0.116103
0.116103
)
;

boundaryField
{
    sides
    {
        type            calculated;
        value           nonuniform List<scalar> 2(0.116103 1.16103);
    }
    empty
    {
        type            empty;
    }
}


// ************************************************************************* //
