/*--------------------------------*- C++ -*----------------------------------*\
| =========                 |                                                 |
| \\      /  F ield         | OpenFOAM: The Open Source CFD Toolbox           |
|  \\    /   O peration     | Version:  2312                                  |
|   \\  /    A nd           | Website:  www.openfoam.com                      |
|    \\/     M anipulation  |                                                 |
\*---------------------------------------------------------------------------*/
FoamFile
{
    version     2.0;
    format      ascii;
    arch        "LSB;label=32;scalar=64";
    class       volScalarField;
    location    "0.006";
    object      rho;
}
// * * * * * * * * * * * * * * * * * * * * * * * * * * * * * * * * * * * * * //

dimensions      [1 -3 0 0 0 0 0];

internalField   nonuniform List<scalar> 
100
(
1.15862
1.15862
1.15862
1.15862
1.15862
1.15862
1.15862
1.15862
1.15862
1.15862
1.15862
1.15861
1.1586
1.15858
1.15853
1.15842
1.15821
1.15783
1.15716
1.15603
1.15421
1.15142
1.14734
1.14162
1.13395
1.12406
1.11177
1.09703
1.07986
1.06039
1.03882
1.01539
0.990373
0.964047
0.936683
0.908534
0.879834
0.850791
0.821589
0.792391
0.763337
0.734552
0.706145
0.678214
0.650849
0.62414
0.598183
0.573088
0.549009
0.52618
0.505023
0.486394
0.472263
0.466457
0.465023
0.463784
0.462244
0.460158
0.457165
0.452764
0.446348
0.437318
0.425259
0.410111
0.392263
0.372512
0.351914
0.331579
0.312487
0.295371
0.280674
0.268563
0.258975
0.251681
0.246346
0.242571
0.239926
0.237947
0.236092
0.233626
0.229435
0.221823
0.208673
0.1887
0.163999
0.141044
0.126075
0.119259
0.116876
0.116151
0.115943
0.115884
0.115868
0.115864
0.115863
0.115862
0.115862
0.115862
0.115862
0.115862
)
;

boundaryField
{
    sides
    {
        type            calculated;
        value           nonuniform List<scalar> 2(0.115862 1.15862);
    }
    empty
    {
        type            empty;
    }
}


// ************************************************************************* //
