/*--------------------------------*- C++ -*----------------------------------*\
| =========                 |                                                 |
| \\      /  F ield         | OpenFOAM: The Open Source CFD Toolbox           |
|  \\    /   O peration     | Version:  2312                                  |
|   \\  /    A nd           | Website:  www.openfoam.com                      |
|    \\/     M anipulation  |                                                 |
\*---------------------------------------------------------------------------*/
FoamFile
{
    version     2.0;
    format      ascii;
    arch        "LSB;label=32;scalar=64";
    class       volScalarField;
    location    "0.006";
    object      rho;
}
// * * * * * * * * * * * * * * * * * * * * * * * * * * * * * * * * * * * * * //

dimensions      [1 -3 0 0 0 0 0];

internalField   nonuniform List<scalar> 
100
(
0.271841
0.270121
0.268226
0.266161
0.263936
0.261561
0.259048
0.256409
0.253655
0.2508
0.247854
0.24483
0.241737
0.238586
0.235386
0.232145
0.22887
0.22557
0.222249
0.218914
0.215569
0.21222
0.208871
0.205526
0.202187
0.198859
0.195543
0.192244
0.188962
0.185701
0.182462
0.179249
0.176062
0.172904
0.169777
0.166683
0.163624
0.160604
0.157625
0.154692
0.151809
0.148982
0.14622
0.143534
0.14094
0.138462
0.136135
0.134007
0.132151
0.130654
0.129601
0.129007
0.128752
0.128645
0.12857
0.128504
0.128441
0.128379
0.128313
0.128241
0.128159
0.128062
0.127946
0.1278
0.127614
0.127368
0.127038
0.12659
0.12598
0.12515
0.124038
0.122573
0.12069
0.118333
0.115472
0.112104
0.108264
0.104022
0.099476
0.0947439
0.0899514
0.08522
0.0806583
0.0763551
0.0723777
0.0687715
0.0655623
0.0627592
0.0603567
0.0583363
0.0566673
0.055309
0.0542152
0.05334
0.0526435
0.0520944
0.0516689
0.0513483
0.051118
0.0509838
)
;

boundaryField
{
    sides
    {
        type            calculated;
        value           nonuniform List<scalar> 2(0.0509838 0.271841);
    }
    empty
    {
        type            empty;
    }
}


// ************************************************************************* //
