/*--------------------------------*- C++ -*----------------------------------*\
| =========                 |                                                 |
| \\      /  F ield         | OpenFOAM: The Open Source CFD Toolbox           |
|  \\    /   O peration     | Version:  2212                                  |
|   \\  /    A nd           | Website:  www.openfoam.com                      |
|    \\/     M anipulation  |                                                 |
\*---------------------------------------------------------------------------*/
FoamFile
{
    version     2.0;
    format      ascii;
    arch        "LSB;label=32;scalar=64";
    class       volScalarField;
    location    "0.006";
    object      rho;
}
// * * * * * * * * * * * * * * * * * * * * * * * * * * * * * * * * * * * * * //

dimensions      [1 -3 0 0 0 0 0];

internalField   nonuniform List<scalar> 
100
(
1.16103
1.16103
1.16103
1.16103
1.16103
1.16103
1.16103
1.16103
1.16103
1.16103
1.16102
1.16102
1.16101
1.16098
1.16093
1.16082
1.16062
1.16023
1.15955
1.15841
1.15658
1.15376
1.14965
1.14389
1.13616
1.12622
1.11388
1.09908
1.08186
1.06234
1.04072
1.01726
0.992217
0.965873
0.938498
0.910345
0.881646
0.852607
0.823412
0.794221
0.765176
0.736399
0.707999
0.680073
0.652713
0.62601
0.600059
0.574975
0.550916
0.528128
0.507048
0.488576
0.474735
0.469172
0.467758
0.466498
0.464906
0.462726
0.459586
0.454973
0.448276
0.4389
0.426445
0.410878
0.392621
0.372504
0.35161
0.331057
0.311823
0.29463
0.279904
0.267795
0.258227
0.250963
0.245658
0.241912
0.239296
0.237347
0.235531
0.233121
0.229017
0.221547
0.208602
0.188873
0.164367
0.141463
0.126433
0.119548
0.117132
0.116396
0.116184
0.116125
0.116109
0.116104
0.116103
0.116103
0.116103
0.116103
0.116103
0.116103
)
;

boundaryField
{
    sides
    {
        type            calculated;
        value           nonuniform List<scalar> 2(0.116103 1.16103);
    }
    empty
    {
        type            empty;
    }
}


// ************************************************************************* //
