/*--------------------------------*- C++ -*----------------------------------*\
| =========                 |                                                 |
| \\      /  F ield         | OpenFOAM: The Open Source CFD Toolbox           |
|  \\    /   O peration     | Version:  2312                                  |
|   \\  /    A nd           | Website:  www.openfoam.com                      |
|    \\/     M anipulation  |                                                 |
\*---------------------------------------------------------------------------*/
FoamFile
{
    version     2.0;
    format      ascii;
    arch        "LSB;label=32;scalar=64";
    class       volScalarField;
    location    "0.006";
    object      T;
}
// * * * * * * * * * * * * * * * * * * * * * * * * * * * * * * * * * * * * * //

dimensions      [0 0 0 1 0 0 0];

internalField   nonuniform List<scalar> 
100
(
300
300
300
300
300
300
300
300
300
300
300
299.999
299.998
299.995
299.99
299.979
299.958
299.918
299.849
299.732
299.544
299.255
298.833
298.242
297.447
296.422
295.144
293.604
291.799
289.738
287.432
284.902
282.167
279.249
276.17
272.952
269.613
266.171
262.643
259.043
255.385
251.681
247.943
244.183
240.412
236.644
232.893
229.181
225.537
222.006
218.676
215.72
213.537
212.902
213.168
213.625
214.268
215.198
216.586
218.685
221.833
226.426
232.865
241.49
252.508
265.93
281.534
298.843
317.147
335.572
353.192
369.166
382.868
393.968
402.443
408.513
412.534
414.872
415.774
415.228
412.787
407.354
397.074
379.889
355.748
330.057
311.913
303.762
301.08
300.302
300.084
300.023
300.006
300.002
300
300
300
300
300
300
)
;

boundaryField
{
    sides
    {
        type            zeroGradient;
    }
    empty
    {
        type            empty;
    }
}


// ************************************************************************* //
