/*--------------------------------*- C++ -*----------------------------------*\
| =========                 |                                                 |
| \\      /  F ield         | OpenFOAM: The Open Source CFD Toolbox           |
|  \\    /   O peration     | Version:  2212                                  |
|   \\  /    A nd           | Website:  www.openfoam.com                      |
|    \\/     M anipulation  |                                                 |
\*---------------------------------------------------------------------------*/
FoamFile
{
    version     2.0;
    format      ascii;
    arch        "LSB;label=32;scalar=64";
    class       volScalarField;
    location    "0.006";
    object      T;
}
// * * * * * * * * * * * * * * * * * * * * * * * * * * * * * * * * * * * * * //

dimensions      [0 0 0 1 0 0 0];

internalField   nonuniform List<scalar> 
100
(
300
300
300
300
300
300
300
300
300
300
300
300
300
300
300
300
300
300
300
300
300
300
300
300
300
300
300
299.999
299.871
298.118
293.01
286.966
281.687
277.026
272.651
268.398
264.208
260.058
255.938
251.842
247.764
243.701
239.65
235.611
231.587
227.585
223.613
219.686
215.861
212.2
208.974
206.828
208.535
208.553
208.148
207.931
207.727
207.613
207.367
207.282
207.345
207.639
208.434
210.532
216.078
229.579
259.222
310.664
372.212
416.866
426.963
425.918
424.224
423.093
421.686
420.829
421.913
423.53
423.266
421.925
418.878
416.888
413.775
384.716
311.876
300.021
300
300
300
300
300
300
300
300
300
300
300
300
300
300
)
;

boundaryField
{
    sides
    {
        type            zeroGradient;
    }
    empty
    {
        type            empty;
    }
}


// ************************************************************************* //
