/*--------------------------------*- C++ -*----------------------------------*\
| =========                 |                                                 |
| \\      /  F ield         | OpenFOAM: The Open Source CFD Toolbox           |
|  \\    /   O peration     | Version:  2212                                  |
|   \\  /    A nd           | Website:  www.openfoam.com                      |
|    \\/     M anipulation  |                                                 |
\*---------------------------------------------------------------------------*/
FoamFile
{
    version     2.0;
    format      ascii;
    arch        "LSB;label=32;scalar=64";
    class       volScalarField;
    location    "0.006";
    object      T;
}
// * * * * * * * * * * * * * * * * * * * * * * * * * * * * * * * * * * * * * //

dimensions      [0 0 0 1 0 0 0];

internalField   nonuniform List<scalar> 
100
(
300
300
300
300
300
300
300
300
300
300
300
299.999
299.998
299.995
299.99
299.978
299.957
299.916
299.845
299.725
299.532
299.237
298.805
298.199
297.387
296.34
295.036
293.466
291.628
289.529
287.184
284.611
281.833
278.87
275.746
272.481
269.095
265.607
262.032
258.386
254.682
250.932
247.15
243.346
239.532
235.723
231.933
228.184
224.507
220.95
217.603
214.651
212.507
211.917
212.198
212.669
213.331
214.289
215.719
217.884
221.13
225.857
232.468
241.301
252.555
266.231
282.094
299.654
318.186
336.806
354.579
370.663
384.436
395.577
404.071
410.146
414.165
416.498
417.393
416.838
414.381
408.916
398.566
381.24
356.843
330.775
312.252
303.88
301.115
300.312
300.086
300.024
300.006
300.002
300
300
300
300
300
300
)
;

boundaryField
{
    sides
    {
        type            zeroGradient;
    }
    empty
    {
        type            empty;
    }
}


// ************************************************************************* //
