/*--------------------------------*- C++ -*----------------------------------*\
| =========                 |                                                 |
| \\      /  F ield         | OpenFOAM: The Open Source CFD Toolbox           |
|  \\    /   O peration     | Version:  2312                                  |
|   \\  /    A nd           | Website:  www.openfoam.com                      |
|    \\/     M anipulation  |                                                 |
\*---------------------------------------------------------------------------*/
FoamFile
{
    version     2.0;
    format      ascii;
    arch        "LSB;label=32;scalar=64";
    class       volScalarField;
    location    "0.006";
    object      T;
}
// * * * * * * * * * * * * * * * * * * * * * * * * * * * * * * * * * * * * * //

dimensions      [0 0 0 1 0 0 0];

internalField   nonuniform List<scalar> 
100
(
293.745
292.512
291.155
289.676
288.079
286.371
284.56
282.653
280.658
278.582
276.434
274.221
271.949
269.625
267.255
264.845
262.399
259.922
257.419
254.893
252.347
249.786
247.21
244.625
242.03
239.43
236.825
234.218
231.611
229.005
226.402
223.803
221.211
218.626
216.051
213.487
210.937
208.403
205.887
203.394
200.928
198.495
196.103
193.762
191.489
189.305
187.244
185.354
183.704
182.382
181.472
180.992
180.834
180.822
180.849
180.894
180.955
181.029
181.118
181.224
181.349
181.498
181.678
181.901
182.184
182.552
183.042
183.706
184.613
185.852
187.534
189.791
192.768
196.622
201.511
207.58
214.957
223.739
233.98
245.683
258.789
273.175
288.646
304.943
321.752
338.725
355.502
371.738
387.127
401.407
414.364
425.831
435.696
443.926
450.577
455.794
459.784
462.769
464.934
466.358
)
;

boundaryField
{
    sides
    {
        type            zeroGradient;
    }
    empty
    {
        type            empty;
    }
}


// ************************************************************************* //
