/*--------------------------------*- C++ -*----------------------------------*\
| =========                 |                                                 |
| \\      /  F ield         | OpenFOAM: The Open Source CFD Toolbox           |
|  \\    /   O peration     | Version:  2212                                  |
|   \\  /    A nd           | Website:  www.openfoam.com                      |
|    \\/     M anipulation  |                                                 |
\*---------------------------------------------------------------------------*/
FoamFile
{
    version     2.0;
    format      ascii;
    arch        "LSB;label=32;scalar=64";
    class       volScalarField;
    location    "0.006";
    object      thermo:psi;
}
// * * * * * * * * * * * * * * * * * * * * * * * * * * * * * * * * * * * * * //

dimensions      [0 -2 2 0 0 0 0];

internalField   nonuniform List<scalar> 
100
(
1.16103e-05
1.16103e-05
1.16103e-05
1.16103e-05
1.16103e-05
1.16103e-05
1.16103e-05
1.16103e-05
1.16103e-05
1.16103e-05
1.16103e-05
1.16103e-05
1.16103e-05
1.16103e-05
1.16103e-05
1.16103e-05
1.16103e-05
1.16103e-05
1.16103e-05
1.16103e-05
1.16103e-05
1.16103e-05
1.16103e-05
1.16103e-05
1.16103e-05
1.16103e-05
1.16103e-05
1.16103e-05
1.16153e-05
1.16836e-05
1.18873e-05
1.21376e-05
1.23651e-05
1.25731e-05
1.27749e-05
1.29773e-05
1.31831e-05
1.33935e-05
1.36091e-05
1.38304e-05
1.40581e-05
1.42925e-05
1.45341e-05
1.47832e-05
1.50401e-05
1.53046e-05
1.55764e-05
1.58549e-05
1.61358e-05
1.64142e-05
1.66675e-05
1.68405e-05
1.67027e-05
1.67012e-05
1.67337e-05
1.67512e-05
1.67676e-05
1.67768e-05
1.67967e-05
1.68036e-05
1.67985e-05
1.67747e-05
1.67108e-05
1.65442e-05
1.61196e-05
1.51716e-05
1.34367e-05
1.12117e-05
9.35779e-06
8.35541e-06
8.15781e-06
8.17783e-06
8.21048e-06
8.23243e-06
8.25989e-06
8.27672e-06
8.25546e-06
8.22394e-06
8.22907e-06
8.25521e-06
8.31527e-06
8.35496e-06
8.41783e-06
9.05365e-06
1.11682e-05
1.16095e-05
1.16103e-05
1.16103e-05
1.16103e-05
1.16103e-05
1.16103e-05
1.16103e-05
1.16103e-05
1.16103e-05
1.16103e-05
1.16103e-05
1.16103e-05
1.16103e-05
1.16103e-05
1.16103e-05
)
;

boundaryField
{
    sides
    {
        type            calculated;
        value           nonuniform List<scalar> 2(1.16103e-05 1.16103e-05);
    }
    empty
    {
        type            empty;
    }
}


// ************************************************************************* //
