/*--------------------------------*- C++ -*----------------------------------*\
| =========                 |                                                 |
| \\      /  F ield         | OpenFOAM: The Open Source CFD Toolbox           |
|  \\    /   O peration     | Version:  2212                                  |
|   \\  /    A nd           | Website:  www.openfoam.com                      |
|    \\/     M anipulation  |                                                 |
\*---------------------------------------------------------------------------*/
FoamFile
{
    version     2.0;
    format      ascii;
    arch        "LSB;label=32;scalar=64";
    class       volScalarField;
    location    "0.006";
    object      thermo:psi;
}
// * * * * * * * * * * * * * * * * * * * * * * * * * * * * * * * * * * * * * //

dimensions      [0 -2 2 0 0 0 0];

internalField   nonuniform List<scalar> 
100
(
1.16103e-05
1.16103e-05
1.16103e-05
1.16103e-05
1.16103e-05
1.16103e-05
1.16103e-05
1.16103e-05
1.16103e-05
1.16103e-05
1.16103e-05
1.16103e-05
1.16104e-05
1.16105e-05
1.16107e-05
1.16111e-05
1.1612e-05
1.16135e-05
1.16163e-05
1.16209e-05
1.16284e-05
1.16399e-05
1.16567e-05
1.16804e-05
1.17123e-05
1.17537e-05
1.18056e-05
1.18688e-05
1.19436e-05
1.20302e-05
1.21284e-05
1.2238e-05
1.23587e-05
1.249e-05
1.26315e-05
1.27829e-05
1.29437e-05
1.31137e-05
1.32926e-05
1.34802e-05
1.36762e-05
1.38806e-05
1.4093e-05
1.43133e-05
1.45412e-05
1.47762e-05
1.50176e-05
1.52643e-05
1.55144e-05
1.57641e-05
1.60066e-05
1.62267e-05
1.63905e-05
1.64361e-05
1.64143e-05
1.6378e-05
1.63272e-05
1.62542e-05
1.61464e-05
1.59859e-05
1.57513e-05
1.54217e-05
1.4983e-05
1.44346e-05
1.37914e-05
1.30829e-05
1.23472e-05
1.16237e-05
1.09467e-05
1.03415e-05
9.82314e-06
9.3969e-06
9.06024e-06
8.80507e-06
8.61998e-06
8.4923e-06
8.40989e-06
8.36278e-06
8.34485e-06
8.35597e-06
8.4055e-06
8.51785e-06
8.73905e-06
9.1362e-06
9.76082e-06
1.05301e-05
1.11547e-05
1.14621e-05
1.15673e-05
1.15982e-05
1.16069e-05
1.16094e-05
1.161e-05
1.16102e-05
1.16103e-05
1.16103e-05
1.16103e-05
1.16103e-05
1.16103e-05
1.16103e-05
)
;

boundaryField
{
    sides
    {
        type            calculated;
        value           nonuniform List<scalar> 2(1.16103e-05 1.16103e-05);
    }
    empty
    {
        type            empty;
    }
}


// ************************************************************************* //
