/*--------------------------------*- C++ -*----------------------------------*\
| =========                 |                                                 |
| \\      /  F ield         | OpenFOAM: The Open Source CFD Toolbox           |
|  \\    /   O peration     | Version:  2312                                  |
|   \\  /    A nd           | Website:  www.openfoam.com                      |
|    \\/     M anipulation  |                                                 |
\*---------------------------------------------------------------------------*/
FoamFile
{
    version     2.0;
    format      ascii;
    arch        "LSB;label=32;scalar=64";
    class       volVectorField;
    location    "0.006";
    object      U;
}
// * * * * * * * * * * * * * * * * * * * * * * * * * * * * * * * * * * * * * //

dimensions      [0 1 -1 0 0 0 0];

internalField   nonuniform List<vector> 
100
(
(24.4137 0 0)
(29.2141 0 0)
(34.5283 0 0)
(40.3484 0 0)
(46.6559 0 0)
(53.4285 0 0)
(60.6406 0 0)
(68.2652 0 0)
(76.2742 0 0)
(84.6399 0 0)
(93.3351 0 0)
(102.334 0 0)
(111.611 0 0)
(121.144 0 0)
(130.912 0 0)
(140.894 0 0)
(151.072 0 0)
(161.43 0 0)
(171.952 0 0)
(182.626 0 0)
(193.438 0 0)
(204.376 0 0)
(215.431 0 0)
(226.593 0 0)
(237.853 0 0)
(249.203 0 0)
(260.635 0 0)
(272.143 0 0)
(283.719 0 0)
(295.357 0 0)
(307.05 0 0)
(318.793 0 0)
(330.578 0 0)
(342.398 0 0)
(354.247 0 0)
(366.115 0 0)
(377.993 0 0)
(389.871 0 0)
(401.733 0 0)
(413.563 0 0)
(425.34 0 0)
(437.032 0 0)
(448.602 0 0)
(459.994 0 0)
(471.13 0 0)
(481.896 0 0)
(492.124 0 0)
(501.569 0 0)
(509.882 0 0)
(516.615 0 0)
(521.341 0 0)
(523.956 0 0)
(524.991 0 0)
(525.328 0 0)
(525.497 0 0)
(525.606 0 0)
(525.677 0 0)
(525.72 0 0)
(525.743 0 0)
(525.752 0 0)
(525.751 0 0)
(525.743 0 0)
(525.732 0 0)
(525.719 0 0)
(525.706 0 0)
(525.693 0 0)
(525.682 0 0)
(525.673 0 0)
(525.665 0 0)
(525.658 0 0)
(525.654 0 0)
(525.65 0 0)
(525.648 0 0)
(525.648 0 0)
(525.649 0 0)
(525.653 0 0)
(525.657 0 0)
(525.664 0 0)
(525.672 0 0)
(525.682 0 0)
(525.693 0 0)
(525.704 0 0)
(525.713 0 0)
(525.71 0 0)
(525.679 0 0)
(525.58 0 0)
(525.352 0 0)
(524.908 0 0)
(524.156 0 0)
(523.042 0 0)
(521.597 0 0)
(519.961 0 0)
(518.357 0 0)
(517.009 0 0)
(516.054 0 0)
(515.495 0 0)
(515.235 0 0)
(515.136 0 0)
(515.09 0 0)
(515.154 0 0)
)
;

boundaryField
{
    sides
    {
        type            zeroGradient;
    }
    empty
    {
        type            empty;
    }
}


// ************************************************************************* //
