/*--------------------------------*- C++ -*----------------------------------*\
| =========                 |                                                 |
| \\      /  F ield         | OpenFOAM: The Open Source CFD Toolbox           |
|  \\    /   O peration     | Version:  2212                                  |
|   \\  /    A nd           | Website:  www.openfoam.com                      |
|    \\/     M anipulation  |                                                 |
\*---------------------------------------------------------------------------*/
FoamFile
{
    version     2.0;
    format      ascii;
    arch        "LSB;label=32;scalar=64";
    class       volVectorField;
    location    "0.006";
    object      U;
}
// * * * * * * * * * * * * * * * * * * * * * * * * * * * * * * * * * * * * * //

dimensions      [0 1 -1 0 0 0 0];

internalField   nonuniform List<vector> 
100
(
(1.38457e-08 0 0)
(5.03565e-08 0 0)
(1.76342e-07 0 0)
(5.94519e-07 0 0)
(1.92941e-06 0 0)
(6.02649e-06 0 0)
(1.81135e-05 0 0)
(5.23775e-05 0 0)
(0.000145676 0 0)
(0.000389598 0 0)
(0.00100162 0 0)
(0.00247457 0 0)
(0.00587302 0 0)
(0.0133851 0 0)
(0.029283 0 0)
(0.0614711 0 0)
(0.123774 0 0)
(0.238975 0 0)
(0.442347 0 0)
(0.784967 0 0)
(1.33576 0 0)
(2.18099 0 0)
(3.42028 0 0)
(5.15918 0 0)
(7.49936 0 0)
(10.5286 0 0)
(14.3129 0 0)
(18.8917 0 0)
(24.2774 0 0)
(30.4584 0 0)
(37.4037 0 0)
(45.0688 0 0)
(53.4007 0 0)
(62.343 0 0)
(71.8388 0 0)
(81.8333 0 0)
(92.275 0 0)
(103.117 0 0)
(114.315 0 0)
(125.83 0 0)
(137.627 0 0)
(149.671 0 0)
(161.931 0 0)
(174.375 0 0)
(186.967 0 0)
(199.671 0 0)
(212.437 0 0)
(225.201 0 0)
(237.864 0 0)
(250.266 0 0)
(262.107 0 0)
(272.773 0 0)
(280.877 0 0)
(283.921 0 0)
(284.29 0 0)
(284.408 0 0)
(284.494 0 0)
(284.563 0 0)
(284.621 0 0)
(284.671 0 0)
(284.713 0 0)
(284.746 0 0)
(284.772 0 0)
(284.794 0 0)
(284.814 0 0)
(284.835 0 0)
(284.858 0 0)
(284.883 0 0)
(284.909 0 0)
(284.937 0 0)
(284.966 0 0)
(284.992 0 0)
(285.011 0 0)
(285.01 0 0)
(284.966 0 0)
(284.829 0 0)
(284.493 0 0)
(283.738 0 0)
(282.111 0 0)
(278.71 0 0)
(271.8 0 0)
(258.306 0 0)
(233.575 0 0)
(192.773 0 0)
(135.995 0 0)
(75.5035 0 0)
(31.4966 0 0)
(10.4789 0 0)
(3.10834 0 0)
(0.88118 0 0)
(0.244881 0 0)
(0.0671517 0 0)
(0.0181804 0 0)
(0.0048534 0 0)
(0.00127532 0 0)
(0.00032925 0 0)
(8.33635e-05 0 0)
(2.06649e-05 0 0)
(5.00743e-06 0 0)
(1.18439e-06 0 0)
)
;

boundaryField
{
    sides
    {
        type            zeroGradient;
    }
    empty
    {
        type            empty;
    }
}


// ************************************************************************* //
