/*--------------------------------*- C++ -*----------------------------------*\
| =========                 |                                                 |
| \\      /  F ield         | OpenFOAM: The Open Source CFD Toolbox           |
|  \\    /   O peration     | Version:  2312                                  |
|   \\  /    A nd           | Website:  www.openfoam.com                      |
|    \\/     M anipulation  |                                                 |
\*---------------------------------------------------------------------------*/
FoamFile
{
    version     2.0;
    format      ascii;
    arch        "LSB;label=32;scalar=64";
    class       volVectorField;
    location    "0.006";
    object      U;
}
// * * * * * * * * * * * * * * * * * * * * * * * * * * * * * * * * * * * * * //

dimensions      [0 1 -1 0 0 0 0];

internalField   nonuniform List<vector> 
100
(
(1.42674e-08 0 0)
(5.16545e-08 0 0)
(1.80122e-07 0 0)
(6.04887e-07 0 0)
(1.95599e-06 0 0)
(6.08932e-06 0 0)
(1.82472e-05 0 0)
(5.26205e-05 0 0)
(0.000145994 0 0)
(0.000389595 0 0)
(0.000999682 0 0)
(0.00246567 0 0)
(0.00584356 0 0)
(0.0133022 0 0)
(0.0290736 0 0)
(0.0609861 0 0)
(0.122732 0 0)
(0.236884 0 0)
(0.438411 0 0)
(0.778 0 0)
(1.32414 0 0)
(2.16268 0 0)
(3.39297 0 0)
(5.12054 0 0)
(7.44735 0 0)
(10.4618 0 0)
(14.2307 0 0)
(18.7945 0 0)
(24.1666 0 0)
(30.3365 0 0)
(37.2737 0 0)
(44.9344 0 0)
(53.2659 0 0)
(62.2119 0 0)
(71.7157 0 0)
(81.7222 0 0)
(92.1801 0 0)
(103.042 0 0)
(114.263 0 0)
(125.806 0 0)
(137.633 0 0)
(149.711 0 0)
(162.007 0 0)
(174.49 0 0)
(187.125 0 0)
(199.875 0 0)
(212.692 0 0)
(225.513 0 0)
(238.242 0 0)
(250.724 0 0)
(262.67 0 0)
(273.489 0 0)
(281.825 0 0)
(285.051 0 0)
(285.45 0 0)
(285.578 0 0)
(285.665 0 0)
(285.726 0 0)
(285.771 0 0)
(285.805 0 0)
(285.832 0 0)
(285.855 0 0)
(285.876 0 0)
(285.896 0 0)
(285.916 0 0)
(285.937 0 0)
(285.96 0 0)
(285.984 0 0)
(286.01 0 0)
(286.037 0 0)
(286.064 0 0)
(286.089 0 0)
(286.104 0 0)
(286.1 0 0)
(286.051 0 0)
(285.905 0 0)
(285.556 0 0)
(284.779 0 0)
(283.116 0 0)
(279.652 0 0)
(272.634 0 0)
(258.958 0 0)
(233.94 0 0)
(192.751 0 0)
(135.601 0 0)
(74.9808 0 0)
(31.1443 0 0)
(10.3322 0 0)
(3.06129 0 0)
(0.86782 0 0)
(0.241356 0 0)
(0.0662856 0 0)
(0.0179867 0 0)
(0.00481636 0 0)
(0.00127046 0 0)
(0.000329506 0 0)
(8.38743e-05 0 0)
(2.09165e-05 0 0)
(5.10188e-06 0 0)
(1.21532e-06 0 0)
)
;

boundaryField
{
    sides
    {
        type            zeroGradient;
    }
    empty
    {
        type            empty;
    }
}


// ************************************************************************* //
