/*--------------------------------*- C++ -*----------------------------------*\
| =========                 |                                                 |
| \\      /  F ield         | OpenFOAM: The Open Source CFD Toolbox           |
|  \\    /   O peration     | Version:  2212                                  |
|   \\  /    A nd           | Website:  www.openfoam.com                      |
|    \\/     M anipulation  |                                                 |
\*---------------------------------------------------------------------------*/
FoamFile
{
    version     2.0;
    format      ascii;
    arch        "LSB;label=32;scalar=64";
    class       volVectorField;
    location    "0.006";
    object      U;
}
// * * * * * * * * * * * * * * * * * * * * * * * * * * * * * * * * * * * * * //

dimensions      [0 1 -1 0 0 0 0];

internalField   nonuniform List<vector> 
100
(
(1.48167e-13 0 0)
(1.87626e-13 0 0)
(1.59757e-13 0 0)
(8.87466e-14 0 0)
(5.70439e-14 0 0)
(1.55835e-13 0 0)
(1.50285e-13 0 0)
(1.11418e-13 0 0)
(7.17722e-14 0 0)
(1.04142e-13 0 0)
(1.52129e-13 0 0)
(5.89972e-14 0 0)
(7.94757e-14 0 0)
(6.87546e-14 0 0)
(6.38261e-14 0 0)
(1.19927e-14 0 0)
(-3.0223e-14 0 0)
(-3.09793e-14 0 0)
(1.63211e-14 0 0)
(2.50153e-14 0 0)
(7.30439e-15 0 0)
(-4.33242e-14 0 0)
(-1.00287e-13 0 0)
(-1.50498e-13 0 0)
(-1.75415e-13 0 0)
(1.48052e-11 0 0)
(8.47137e-07 0 0)
(0.00269272 0 0)
(0.369175 0 0)
(5.40019 0 0)
(19.9935 0 0)
(37.3744 0 0)
(52.7369 0 0)
(66.434 0 0)
(79.3982 0 0)
(92.1002 0 0)
(104.716 0 0)
(117.311 0 0)
(129.915 0 0)
(142.549 0 0)
(155.231 0 0)
(167.974 0 0)
(180.786 0 0)
(193.668 0 0)
(206.614 0 0)
(219.607 0 0)
(232.618 0 0)
(245.575 0 0)
(258.397 0 0)
(270.675 0 0)
(281.613 0 0)
(289.042 0 0)
(283.787 0 0)
(283.033 0 0)
(284.32 0 0)
(285.232 0 0)
(285.268 0 0)
(284.858 0 0)
(284.825 0 0)
(284.815 0 0)
(284.731 0 0)
(284.581 0 0)
(284.607 0 0)
(284.715 0 0)
(284.44 0 0)
(284.52 0 0)
(285.321 0 0)
(285.335 0 0)
(283.622 0 0)
(290.641 0 0)
(288.809 0 0)
(282.681 0 0)
(280.279 0 0)
(279.801 0 0)
(279.356 0 0)
(280.084 0 0)
(285.308 0 0)
(290.413 0 0)
(290.619 0 0)
(288.855 0 0)
(282.677 0 0)
(279.195 0 0)
(273.813 0 0)
(203.122 0 0)
(25.8882 0 0)
(0.0464516 0 0)
(2.07193e-07 0 0)
(2.09769e-13 0 0)
(-2.65567e-13 0 0)
(-2.01261e-13 0 0)
(-1.88493e-13 0 0)
(-2.56287e-13 0 0)
(-3.37138e-13 0 0)
(-4.02007e-13 0 0)
(-4.84618e-13 0 0)
(-4.72019e-13 0 0)
(-4.243e-13 0 0)
(-5.21502e-13 0 0)
(-5.68804e-13 0 0)
(-5.43315e-13 0 0)
)
;

boundaryField
{
    sides
    {
        type            zeroGradient;
    }
    empty
    {
        type            empty;
    }
}


// ************************************************************************* //
