0.005 	1.27988e+08 	4469.58
0.015 	1.25459e+08 	4440.37
0.025 	1.22961e+08 	4411.17
0.035 	1.20492e+08 	4381.96
0.045 	1.18054e+08 	4352.76
0.055 	1.15646e+08 	4323.57
0.065 	1.13268e+08 	4294.38
0.075 	1.10921e+08 	4265.21
0.085 	1.08604e+08 	4236.04
0.095 	1.06319e+08 	4206.89
0.105 	1.04064e+08 	4177.76
0.115 	1.0184e+08 	4148.65
0.125 	9.96474e+07 	4119.57
0.135 	9.74855e+07 	4090.5
0.145 	9.53546e+07 	4061.47
0.155 	9.32546e+07 	4032.46
0.165 	9.11857e+07 	4003.49
0.175 	8.91477e+07 	3974.55
0.185 	8.71407e+07 	3945.64
0.195 	8.51645e+07 	3916.77
0.205 	8.32191e+07 	3887.95
0.215 	8.13045e+07 	3859.16
0.225 	7.94204e+07 	3830.42
0.235 	7.75669e+07 	3801.73
0.245 	7.57438e+07 	3773.08
0.255 	7.3951e+07 	3744.49
0.265 	7.21883e+07 	3715.95
0.275 	7.04557e+07 	3687.46
0.285 	6.87528e+07 	3659.03
0.295 	6.70797e+07 	3630.66
0.305 	6.54361e+07 	3602.36
0.315 	6.38218e+07 	3574.11
0.325 	6.22366e+07 	3545.93
0.335 	6.06803e+07 	3517.81
0.345 	5.91527e+07 	3489.76
0.355 	5.76537e+07 	3461.78
0.365 	5.61828e+07 	3433.88
0.375 	5.47401e+07 	3406.04
0.385 	5.33251e+07 	3378.29
0.395 	5.19376e+07 	3350.6
0.405 	5.05774e+07 	3323
0.415 	4.92442e+07 	3295.48
0.425 	4.79378e+07 	3268.04
0.435 	4.66578e+07 	3240.68
0.445 	4.54041e+07 	3213.41
0.455 	4.41762e+07 	3186.23
0.465 	4.2974e+07 	3159.13
0.475 	4.17971e+07 	3132.12
0.485 	4.06453e+07 	3105.21
0.495 	3.95181e+07 	3078.38
0.505 	3.84155e+07 	3051.66
0.515 	3.73369e+07 	3025.02
0.525 	3.62822e+07 	2998.49
0.535 	3.52509e+07 	2972.05
0.545 	3.42428e+07 	2945.71
0.555 	3.32576e+07 	2919.48
0.565 	3.2295e+07 	2893.34
0.575 	3.13546e+07 	2867.32
0.585 	3.0436e+07 	2841.39
0.595 	2.95391e+07 	2815.58
0.605 	2.86633e+07 	2789.87
0.615 	2.78086e+07 	2764.27
0.625 	2.69744e+07 	2738.78
0.635 	2.61604e+07 	2713.4
0.645 	2.53664e+07 	2688.14
0.655 	2.4592e+07 	2662.98
0.665 	2.38369e+07 	2637.95
0.675 	2.31008e+07 	2613.02
0.685 	2.23832e+07 	2588.22
0.695 	2.1684e+07 	2563.53
0.705 	2.10028e+07 	2538.96
0.715 	2.03391e+07 	2514.51
0.725 	1.96929e+07 	2490.19
0.735 	1.90636e+07 	2465.98
0.745 	1.8451e+07 	2441.9
0.755 	1.78548e+07 	2417.93
0.765 	1.72746e+07 	2394.1
0.775 	1.67101e+07 	2370.39
0.785 	1.61611e+07 	2346.8
0.795 	1.56272e+07 	2323.34
0.805 	1.51081e+07 	2300.01
0.815 	1.46035e+07 	2276.81
0.825 	1.41131e+07 	2253.74
0.835 	1.36366e+07 	2230.79
0.845 	1.31737e+07 	2207.98
0.855 	1.27241e+07 	2185.3
0.865 	1.22875e+07 	2162.75
0.875 	1.18636e+07 	2140.34
0.885 	1.14522e+07 	2118.05
0.895 	1.1053e+07 	2095.9
0.905 	1.06656e+07 	2073.89
0.915 	1.02898e+07 	2052.01
0.925 	9.92542e+06 	2030.26
0.935 	9.57207e+06 	2008.65
0.945 	9.22952e+06 	1987.18
0.955 	8.89753e+06 	1965.84
0.965 	8.57582e+06 	1944.64
0.975 	8.26414e+06 	1923.58
0.985 	7.96226e+06 	1902.65
0.995 	7.66992e+06 	1881.86
1.005 	7.38687e+06 	1861.22
1.015 	7.11289e+06 	1840.71
1.025 	6.84774e+06 	1820.34
1.035 	6.59119e+06 	1800.11
1.045 	6.34301e+06 	1780.01
1.055 	6.10299e+06 	1760.06
1.065 	5.87089e+06 	1740.26
1.075 	5.64652e+06 	1720.59
1.085 	5.42965e+06 	1701.06
1.095 	5.22009e+06 	1681.67
1.105 	5.01762e+06 	1662.43
1.115 	4.82206e+06 	1643.32
1.125 	4.6332e+06 	1624.36
1.135 	4.45086e+06 	1605.54
1.145 	4.27484e+06 	1586.85
1.155 	4.10497e+06 	1568.32
1.165 	3.94107e+06 	1549.92
1.175 	3.78296e+06 	1531.66
1.185 	3.63047e+06 	1513.55
1.195 	3.48342e+06 	1495.57
1.205 	3.34167e+06 	1477.74
1.215 	3.20504e+06 	1460.05
1.225 	3.07338e+06 	1442.5
1.235 	2.94654e+06 	1425.1
1.245 	2.82436e+06 	1407.83
1.255 	2.70671e+06 	1390.71
1.265 	2.59343e+06 	1373.72
1.275 	2.48439e+06 	1356.88
1.285 	2.37946e+06 	1340.18
1.295 	2.27849e+06 	1323.62
1.305 	2.18137e+06 	1307.2
1.315 	2.08796e+06 	1290.92
1.325 	1.99814e+06 	1274.78
1.335 	1.9118e+06 	1258.78
1.345 	1.82882e+06 	1242.92
1.355 	1.74908e+06 	1227.2
1.365 	1.67248e+06 	1211.62
1.375 	1.5989e+06 	1196.17
1.385 	1.52825e+06 	1180.87
1.395 	1.46042e+06 	1165.7
1.405 	1.39531e+06 	1150.67
1.415 	1.33283e+06 	1135.78
1.425 	1.27289e+06 	1121.02
1.435 	1.21539e+06 	1106.4
1.445 	1.16025e+06 	1091.92
1.455 	1.10738e+06 	1077.57
1.465 	1.0567e+06 	1063.36
1.475 	1.00813e+06 	1049.29
1.485 	961595 	1035.35
1.495 	917016 	1021.54
1.505 	874323 	1007.87
1.515 	833443 	994.324
1.525 	794309 	980.916
1.535 	756854 	967.64
1.545 	721014 	954.495
1.555 	686728 	941.482
1.565 	653935 	928.599
1.575 	622577 	915.846
1.585 	592599 	903.223
1.595 	563945 	890.728
1.605 	536564 	878.362
1.615 	510405 	866.123
1.625 	485418 	854.012
1.635 	461557 	842.027
1.645 	438777 	830.169
1.655 	417032 	818.436
1.665 	396281 	806.828
1.675 	376482 	795.344
1.685 	357597 	783.983
1.695 	339587 	772.745
1.705 	322415 	761.63
1.715 	306046 	750.635
1.725 	290447 	739.762
1.735 	275583 	729.009
1.745 	261425 	718.375
1.755 	247941 	707.859
1.765 	235102 	697.462
1.775 	222880 	687.182
1.785 	211248 	677.019
1.795 	200180 	666.972
1.805 	189651 	657.04
1.815 	179637 	647.222
1.825 	170116 	637.519
1.835 	161064 	627.929
1.845 	152461 	618.451
1.855 	144286 	609.084
1.865 	136521 	599.828
1.875 	129145 	590.682
1.885 	122141 	581.645
1.895 	115492 	572.717
1.905 	109181 	563.896
1.915 	103193 	555.183
1.925 	97511.8 	546.575
1.935 	92123.5 	538.073
1.945 	87013.9 	529.675
1.955 	82169.8 	521.382
1.965 	77578.5 	513.191
1.975 	73227.7 	505.102
1.985 	69105.8 	497.116
1.995 	65201.7 	489.23
2.005 	61504.7 	481.444
2.015 	58004.6 	473.756
2.025 	54691.7 	466.167
2.035 	51556.7 	458.676
2.045 	48590.7 	451.281
2.055 	45785.3 	443.982
2.065 	43132.4 	436.778
2.075 	40624.2 	429.668
2.085 	38253.5 	422.652
2.095 	36013.2 	415.728
2.105 	33896.6 	408.896
2.115 	31897.3 	402.155
2.125 	30009.4 	395.504
2.135 	28226.9 	388.943
2.145 	26544.5 	382.47
2.155 	24956.8 	376.085
2.165 	23458.8 	369.787
2.175 	22045.9 	363.575
2.185 	20713.5 	357.449
2.195 	19457.3 	351.407
2.205 	18273.2 	345.449
2.215 	17157.4 	339.573
2.225 	16106.1 	333.78
2.235 	15115.9 	328.068
2.245 	14183.3 	322.437
2.255 	13305.4 	316.885
2.265 	12479 	311.412
2.275 	11701.3 	306.018
2.285 	10969.6 	300.701
2.295 	10281.4 	295.461
2.305 	9634.23 	290.296
2.315 	9025.75 	285.206
2.325 	8453.81 	280.191
2.335 	7916.34 	275.248
2.345 	7411.37 	270.379
2.355 	6937.06 	265.581
2.365 	6491.65 	260.855
2.375 	6073.47 	256.198
2.385 	5680.95 	251.611
2.395 	5312.6 	247.093
2.405 	4967.02 	242.643
2.415 	4642.88 	238.261
2.425 	4338.9 	233.945
2.435 	4053.92 	229.695
2.445 	3786.8 	225.509
2.455 	3536.48 	221.388
2.465 	3301.96 	217.331
2.475 	3082.3 	213.336
2.485 	2876.6 	209.404
2.495 	2684.02 	205.532
2.505 	2503.76 	201.722
2.515 	2335.08 	197.971
2.525 	2177.28 	194.279
2.535 	2029.67 	190.646
2.545 	1891.65 	187.071
2.555 	1762.61 	183.552
2.565 	1642 	180.091
2.575 	1529.29 	176.684
2.585 	1424 	173.333
2.595 	1325.65 	170.036
2.605 	1233.82 	166.793
2.615 	1148.09 	163.602
2.625 	1068.07 	160.464
2.635 	993.398 	157.377
2.645 	923.738 	154.342
2.655 	858.767 	151.356
2.665 	798.184 	148.42
2.675 	741.705 	145.533
2.685 	689.065 	142.695
2.695 	640.015 	139.904
2.705 	594.32 	137.161
2.715 	551.762 	134.463
2.725 	512.134 	131.812
2.735 	475.243 	129.205
2.745 	440.908 	126.643
2.755 	408.961 	124.126
2.765 	379.241 	121.651
2.775 	351.6 	119.219
2.785 	325.899 	116.83
2.795 	302.007 	114.482
2.805 	279.803 	112.175
2.815 	259.171 	109.908
2.825 	240.006 	107.682
2.835 	222.207 	105.494
2.845 	205.68 	103.345
2.855 	190.339 	101.235
2.865 	176.101 	99.162
2.875 	162.891 	97.1261
2.885 	150.637 	95.1267
2.895 	139.273 	93.1633
2.905 	128.736 	91.2354
2.915 	118.97 	89.3424
2.925 	109.918 	87.4839
2.935 	101.532 	85.6593
2.945 	93.7642 	83.8681
2.955 	86.5705 	82.1098
2.965 	79.9102 	80.3839
2.975 	73.7453 	78.6898
2.985 	68.0403 	77.0272
2.995 	62.7621 	75.3955
3.005 	57.8799 	73.7942
3.015 	53.3651 	72.2229
3.025 	49.1912 	70.6811
3.035 	45.3331 	69.1684
3.045 	41.768 	67.6843
3.055 	38.4743 	66.2284
3.065 	35.4321 	64.8002
3.075 	32.6229 	63.3992
3.085 	30.0294 	62.025
3.095 	27.6357 	60.6772
3.105 	25.4269 	59.3554
3.115 	23.3892 	58.0591
3.125 	21.5098 	56.788
3.135 	19.7768 	55.5415
3.145 	18.1792 	54.3194
3.155 	16.7068 	53.1211
3.165 	15.35 	51.9465
3.175 	14.1002 	50.795
3.185 	12.9491 	49.6662
3.195 	11.8892 	48.5597
3.205 	10.9135 	47.4752
3.215 	10.0155 	46.4124
3.225 	9.18931 	45.3707
3.235 	8.42929 	44.35
3.245 	7.73032 	43.3497
3.255 	7.08765 	42.3697
3.265 	6.4969 	41.4094
3.275 	5.95399 	40.4687
3.285 	5.45517 	39.5471
3.295 	4.99698 	38.6444
3.305 	4.5762 	37.7601
3.315 	4.18988 	36.8939
3.325 	3.83527 	36.0456
3.335 	3.50985 	35.2148
3.345 	3.21129 	34.4012
3.355 	2.93744 	33.6045
3.365 	2.68631 	32.8243
3.375 	2.45608 	32.0605
3.385 	2.24505 	31.3128
3.395 	2.05167 	30.5807
3.405 	1.87452 	29.864
3.415 	1.71225 	29.1625
3.425 	1.56367 	28.4758
3.435 	1.42764 	27.8038
3.445 	1.30314 	27.146
3.455 	1.18922 	26.5023
3.465 	1.085 	25.8724
3.475 	0.989689 	25.2561
3.485 	0.902534 	24.653
3.495 	0.822861 	24.063
3.505 	0.750044 	23.4858
3.515 	0.683511 	22.9211
3.525 	0.622733 	22.3687
3.535 	0.567226 	21.8284
3.545 	0.516545 	21.2999
3.555 	0.470282 	20.783
3.565 	0.428061 	20.2775
3.575 	0.389539 	19.7832
3.585 	0.354401 	19.2998
3.595 	0.322356 	18.8272
3.605 	0.293139 	18.3651
3.615 	0.266508 	17.9134
3.625 	0.242239 	17.4717
3.635 	0.220128 	17.04
3.645 	0.199988 	16.6179
3.655 	0.181648 	16.2054
3.665 	0.164951 	15.8023
3.675 	0.149753 	15.4083
3.685 	0.135924 	15.0232
3.695 	0.123342 	14.647
3.705 	0.111899 	14.2793
3.715 	0.101493 	13.9201
3.725 	0.0920335 	13.5692
3.735 	0.0834358 	13.2263
3.745 	0.0756233 	12.8914
3.755 	0.0685262 	12.5642
3.765 	0.0620805 	12.2446
3.775 	0.0562278 	11.9325
3.785 	0.0509148 	11.6277
3.795 	0.0460929 	11.33
3.805 	0.0417178 	11.0393
3.815 	0.037749 	10.7554
3.825 	0.0341498 	10.4783
3.835 	0.0308864 	10.2077
3.845 	0.0279282 	9.94348
3.855 	0.0252474 	9.68557
3.865 	0.0228185 	9.43381
3.875 	0.0206184 	9.18807
3.885 	0.018626 	8.94823
3.895 	0.0168222 	8.71415
3.905 	0.0151894 	8.4857
3.915 	0.0137119 	8.26277
3.925 	0.0123751 	8.04523
3.935 	0.0111661 	7.83297
3.945 	0.0100727 	7.62587
3.955 	0.00908431 	7.42382
3.965 	0.00819093 	7.22671
3.975 	0.00738365 	7.03444
3.985 	0.00665436 	6.84689
3.995 	0.00599568 	6.66396
4.005 	0.00540092 	6.48555
4.015 	0.004864 	6.31155
4.025 	0.00437942 	6.14187
4.035 	0.00394218 	5.97641
4.045 	0.00354775 	5.81507
4.055 	0.00319202 	5.65777
4.065 	0.00287129 	5.50441
4.075 	0.00258217 	5.35491
4.085 	0.0023216 	5.20918
4.095 	0.00208684 	5.06713
4.105 	0.00187537 	4.92867
4.115 	0.00168493 	4.79372
4.125 	0.00151347 	4.66221
4.135 	0.00135913 	4.53405
4.145 	0.00122025 	4.40917
4.155 	0.00109529 	4.2875
4.165 	0.000982899 	4.16896
4.175 	0.00088183 	4.05347
4.185 	0.000790966 	3.94097
4.195 	0.000709296 	3.83139
4.205 	0.000635908 	3.72465
4.215 	0.000569979 	3.6207
4.225 	0.000510763 	3.51946
4.235 	0.000457591 	3.42088
4.245 	0.000409857 	3.3249
4.255 	0.000367016 	3.23145
4.265 	0.000328575 	3.14048
4.275 	0.000294091 	3.05192
4.285 	0.000263164 	2.96573
4.295 	0.000235433 	2.88184
4.305 	0.000210576 	2.8002
4.315 	0.000188298 	2.72076
4.325 	0.000168337 	2.64348
4.335 	0.000150458 	2.56831
4.345 	0.000134445 	2.49518
4.355 	0.000120109 	2.42407
4.365 	0.000107277 	2.35492
4.375 	9.5793e-05 	2.28769
4.385 	8.55188e-05 	2.22234
4.395 	7.63289e-05 	2.15882
4.405 	6.81109e-05 	2.09711
4.415 	6.07638e-05 	2.03716
4.425 	5.41969e-05 	1.97893
4.435 	4.83288e-05 	1.9224
4.445 	4.30864e-05 	1.86752
4.455 	3.8404e-05 	1.81427
4.465 	3.4223e-05 	1.76261
4.475 	3.04905e-05 	1.71252
4.485 	2.71592e-05 	1.66397
4.495 	2.41867e-05 	1.61694
4.505 	2.15351e-05 	1.5714
4.515 	1.91701e-05 	1.52733
4.525 	1.70615e-05 	1.48471
4.535 	1.51818e-05 	1.44352
4.545 	1.35066e-05 	1.40374
4.555 	1.2014e-05 	1.36536
4.565 	1.06844e-05 	1.32836
4.575 	9.5004e-06 	1.29274
4.585 	8.44619e-06 	1.25847
4.595 	7.50781e-06 	1.22555
4.605 	6.67275e-06 	1.19398
4.615 	5.92979e-06 	1.16373
4.625 	5.26895e-06 	1.1348
4.635 	4.68129e-06 	1.10719
4.645 	4.15884e-06 	1.08088
4.655 	3.69447e-06 	1.05586
4.665 	3.28182e-06 	1.03213
4.675 	2.91523e-06 	1.00966
4.685 	2.58963e-06 	0.98845
4.695 	2.30051e-06 	0.968478
4.705 	2.04384e-06 	0.949722
4.715 	1.81604e-06 	0.93216
4.725 	1.61391e-06 	0.915762
4.735 	1.4346e-06 	0.900499
4.745 	1.27557e-06 	0.886335
4.755 	1.13457e-06 	0.873232
4.765 	1.00958e-06 	0.861149
4.775 	8.988e-07 	0.85004
4.785 	8.00652e-07 	0.839858
4.795 	7.13711e-07 	0.830554
4.805 	6.36716e-07 	0.822077
4.815 	5.68547e-07 	0.814375
4.825 	5.08207e-07 	0.807396
4.835 	4.54809e-07 	0.801089
4.845 	4.07566e-07 	0.795404
4.855 	3.65779e-07 	0.79029
4.865 	3.28827e-07 	0.785701
4.875 	2.96157e-07 	0.781591
4.885 	2.67282e-07 	0.777917
4.895 	2.41767e-07 	0.774638
4.905 	2.19225e-07 	0.771717
4.915 	1.99316e-07 	0.769119
4.925 	1.81735e-07 	0.766811
4.935 	1.66216e-07 	0.764764
4.945 	1.52518e-07 	0.76295
4.955 	1.40432e-07 	0.761344
4.965 	1.2977e-07 	0.759925
4.975 	1.20367e-07 	0.75867
4.985 	1.12076e-07 	0.757563
4.995 	1.04768e-07 	0.756587
5.005 	9.83269e-08 	0.755726
5.015 	9.26519e-08 	0.754968
5.025 	8.7653e-08 	0.754301
5.035 	8.32507e-08 	0.753714
5.045 	7.93748e-08 	0.753198
5.055 	7.59631e-08 	0.752745
5.065 	7.29608e-08 	0.752346
5.075 	7.03194e-08 	0.751996
5.085 	6.7996e-08 	0.751689
5.095 	6.5953e-08 	0.75142
5.105 	6.41568e-08 	0.751184
5.115 	6.25781e-08 	0.750977
5.125 	6.11908e-08 	0.750796
5.135 	5.99721e-08 	0.750637
5.145 	5.89017e-08 	0.750497
5.155 	5.79618e-08 	0.750376
5.165 	5.71367e-08 	0.750269
5.175 	5.64125e-08 	0.750176
5.185 	5.57771e-08 	0.750094
5.195 	5.52197e-08 	0.750023
5.205 	5.47308e-08 	0.74996
5.215 	5.43022e-08 	0.749906
5.225 	5.39265e-08 	0.749858
5.235 	5.35972e-08 	0.749816
5.245 	5.33087e-08 	0.74978
5.255 	5.3056e-08 	0.749748
5.265 	5.28347e-08 	0.749721
5.275 	5.26409e-08 	0.749696
5.285 	5.24713e-08 	0.749675
5.295 	5.23229e-08 	0.749657
5.305 	5.2193e-08 	0.749641
5.315 	5.20794e-08 	0.749627
5.325 	5.19801e-08 	0.749615
5.335 	5.18933e-08 	0.749604
5.345 	5.18174e-08 	0.749595
5.355 	5.17511e-08 	0.749587
5.365 	5.16932e-08 	0.74958
5.375 	5.16426e-08 	0.749574
5.385 	5.15984e-08 	0.749568
5.395 	5.15598e-08 	0.749564
5.405 	5.15261e-08 	0.74956
5.415 	5.14968e-08 	0.749556
5.425 	5.14712e-08 	0.749553
5.435 	5.14488e-08 	0.749551
5.445 	5.14293e-08 	0.749548
5.455 	5.14123e-08 	0.749546
5.465 	5.13975e-08 	0.749545
5.475 	5.13846e-08 	0.749543
5.485 	5.13734e-08 	0.749542
5.495 	5.13636e-08 	0.749541
5.505 	5.13551e-08 	0.74954
5.515 	5.13477e-08 	0.749539
5.525 	5.13412e-08 	0.749538
5.535 	5.13356e-08 	0.749537
5.545 	5.13308e-08 	0.749537
5.555 	5.13265e-08 	0.749536
5.565 	5.13228e-08 	0.749536
5.575 	5.13196e-08 	0.749536
5.585 	5.13168e-08 	0.749535
5.595 	5.13144e-08 	0.749535
5.605 	5.13123e-08 	0.749535
5.615 	5.13105e-08 	0.749535
5.625 	5.13089e-08 	0.749534
5.635 	5.13075e-08 	0.749534
5.645 	5.13063e-08 	0.749534
5.655 	5.13053e-08 	0.749534
5.665 	5.13044e-08 	0.749534
5.675 	5.13036e-08 	0.749534
5.685 	5.13029e-08 	0.749534
5.695 	5.13023e-08 	0.749534
5.705 	5.13018e-08 	0.749534
5.715 	5.13014e-08 	0.749534
5.725 	5.1301e-08 	0.749534
5.735 	5.13007e-08 	0.749533
5.745 	5.13004e-08 	0.749533
5.755 	5.13002e-08 	0.749533
5.765 	5.12999e-08 	0.749533
5.775 	5.12998e-08 	0.749533
5.785 	5.12996e-08 	0.749533
5.795 	5.12995e-08 	0.749533
5.805 	5.12993e-08 	0.749533
5.815 	5.12992e-08 	0.749533
5.825 	5.12992e-08 	0.749533
5.835 	5.12991e-08 	0.749533
5.845 	5.1299e-08 	0.749533
5.855 	5.1299e-08 	0.749533
5.865 	5.12989e-08 	0.749533
5.875 	5.12989e-08 	0.749533
5.885 	5.12988e-08 	0.749533
5.895 	5.12988e-08 	0.749533
5.905 	5.12988e-08 	0.749533
5.915 	5.12987e-08 	0.749533
5.925 	5.12987e-08 	0.749533
5.935 	5.12987e-08 	0.749533
5.945 	5.12987e-08 	0.749533
5.955 	5.12987e-08 	0.749533
5.965 	5.12987e-08 	0.749533
5.975 	5.12987e-08 	0.749533
5.985 	5.12986e-08 	0.749533
5.995 	5.12986e-08 	0.749533
6.005 	5.12986e-08 	0.749533
6.015 	5.12986e-08 	0.749533
6.025 	5.12986e-08 	0.749533
6.035 	5.12986e-08 	0.749533
6.045 	5.12986e-08 	0.749533
6.055 	5.12986e-08 	0.749533
6.065 	5.12986e-08 	0.749533
6.075 	5.12986e-08 	0.749533
6.085 	5.12986e-08 	0.749533
6.095 	5.12986e-08 	0.749533
6.105 	5.12986e-08 	0.749533
6.115 	5.12986e-08 	0.749533
6.125 	5.12986e-08 	0.749533
6.135 	5.12986e-08 	0.749533
6.145 	5.12986e-08 	0.749533
6.155 	5.12986e-08 	0.749533
6.165 	5.12986e-08 	0.749533
6.175 	5.12986e-08 	0.749533
6.185 	5.12986e-08 	0.749533
6.195 	5.12986e-08 	0.749533
6.205 	5.12986e-08 	0.749533
6.215 	5.12986e-08 	0.749533
6.225 	5.12986e-08 	0.749533
6.235 	5.12986e-08 	0.749533
6.245 	5.12986e-08 	0.749533
6.255 	5.12986e-08 	0.749533
6.265 	5.12986e-08 	0.749533
6.275 	5.12986e-08 	0.749533
6.285 	5.12986e-08 	0.749533
6.295 	5.12986e-08 	0.749533
6.305 	5.12986e-08 	0.749533
6.315 	5.12986e-08 	0.749533
6.325 	5.12986e-08 	0.749533
6.335 	5.12986e-08 	0.749533
6.345 	5.12986e-08 	0.749533
6.355 	5.12986e-08 	0.749533
6.365 	5.12986e-08 	0.749533
6.375 	5.12986e-08 	0.749533
6.385 	5.12986e-08 	0.749533
6.395 	5.12986e-08 	0.749533
6.405 	5.12986e-08 	0.749533
6.415 	5.12986e-08 	0.749533
6.425 	5.12986e-08 	0.749533
6.435 	5.12986e-08 	0.749533
6.445 	5.12986e-08 	0.749533
6.455 	5.12986e-08 	0.749533
6.465 	5.12986e-08 	0.749533
6.475 	5.12986e-08 	0.749533
6.485 	5.12986e-08 	0.749533
6.495 	5.12986e-08 	0.749533
6.505 	5.12986e-08 	0.749533
6.515 	5.12986e-08 	0.749533
6.525 	5.12986e-08 	0.749533
6.535 	5.12986e-08 	0.749533
6.545 	5.12986e-08 	0.749533
6.555 	5.12986e-08 	0.749533
6.565 	5.12986e-08 	0.749533
6.575 	5.12986e-08 	0.749533
6.585 	5.12986e-08 	0.749533
6.595 	5.12986e-08 	0.749533
6.605 	5.12986e-08 	0.749533
6.615 	5.12986e-08 	0.749533
6.625 	5.12986e-08 	0.749533
6.635 	5.12986e-08 	0.749533
6.645 	5.12986e-08 	0.749533
6.655 	5.12986e-08 	0.749533
6.665 	5.12986e-08 	0.749533
6.675 	5.12986e-08 	0.749533
6.685 	5.12986e-08 	0.749533
6.695 	5.12986e-08 	0.749533
6.705 	5.12986e-08 	0.749533
6.715 	5.12986e-08 	0.749533
6.725 	5.12986e-08 	0.749533
6.735 	5.12986e-08 	0.749533
6.745 	5.12986e-08 	0.749533
6.755 	5.12986e-08 	0.749533
6.765 	5.12986e-08 	0.749533
6.775 	5.12986e-08 	0.749533
6.785 	5.12986e-08 	0.749533
6.795 	5.12986e-08 	0.749533
6.805 	5.12986e-08 	0.749533
6.815 	5.12986e-08 	0.749533
6.825 	5.12986e-08 	0.749533
6.835 	5.12986e-08 	0.749533
6.845 	5.12986e-08 	0.749533
6.855 	5.12986e-08 	0.749533
6.865 	5.12986e-08 	0.749533
6.875 	5.12986e-08 	0.749533
6.885 	5.12986e-08 	0.749533
6.895 	5.12986e-08 	0.749533
6.905 	5.12986e-08 	0.749533
6.915 	5.12986e-08 	0.749533
6.925 	5.12986e-08 	0.749533
6.935 	5.12986e-08 	0.749533
6.945 	5.12986e-08 	0.749533
6.955 	5.12986e-08 	0.749533
6.965 	5.12986e-08 	0.749533
6.975 	5.12986e-08 	0.749533
6.985 	5.12986e-08 	0.749533
6.995 	5.12986e-08 	0.749533
7.005 	5.12986e-08 	0.749533
7.015 	5.12986e-08 	0.749533
7.025 	5.12986e-08 	0.749533
7.035 	5.12986e-08 	0.749533
7.045 	5.12986e-08 	0.749533
7.055 	5.12986e-08 	0.749533
7.065 	5.12986e-08 	0.749533
7.075 	5.12986e-08 	0.749533
7.085 	5.12986e-08 	0.749533
7.095 	5.12986e-08 	0.749533
7.105 	5.12986e-08 	0.749533
7.115 	5.12986e-08 	0.749533
7.125 	5.12986e-08 	0.749533
7.135 	5.12986e-08 	0.749533
7.145 	5.12986e-08 	0.749533
7.155 	5.12986e-08 	0.749533
7.165 	5.12986e-08 	0.749533
7.175 	5.12985e-08 	0.749533
7.185 	5.12985e-08 	0.749533
7.195 	5.12985e-08 	0.749533
7.205 	5.12985e-08 	0.749533
7.215 	5.12985e-08 	0.749533
7.225 	5.12985e-08 	0.749533
7.235 	5.12985e-08 	0.749533
7.245 	5.12985e-08 	0.749533
7.255 	5.12985e-08 	0.749533
7.265 	5.12985e-08 	0.749533
7.275 	5.12985e-08 	0.749533
7.285 	5.12985e-08 	0.749533
7.295 	5.12985e-08 	0.749533
7.305 	5.12985e-08 	0.749533
7.315 	5.12985e-08 	0.749533
7.325 	5.12984e-08 	0.749533
7.335 	5.12984e-08 	0.749533
7.345 	5.12984e-08 	0.749533
7.355 	5.12984e-08 	0.749533
7.365 	5.12984e-08 	0.749533
7.375 	5.12984e-08 	0.749533
7.385 	5.12984e-08 	0.749533
7.395 	5.12983e-08 	0.749533
7.405 	5.12983e-08 	0.749533
7.415 	5.12983e-08 	0.749533
7.425 	5.12983e-08 	0.749533
7.435 	5.12982e-08 	0.749533
7.445 	5.12982e-08 	0.749533
7.455 	5.12982e-08 	0.749533
7.465 	5.12982e-08 	0.749533
7.475 	5.12981e-08 	0.749533
7.485 	5.12981e-08 	0.749533
7.495 	5.12981e-08 	0.749533
7.505 	5.1298e-08 	0.749533
7.515 	5.1298e-08 	0.749533
7.525 	5.12979e-08 	0.749533
7.535 	5.12979e-08 	0.749533
7.545 	5.12978e-08 	0.749533
7.555 	5.12978e-08 	0.749533
7.565 	5.12977e-08 	0.749533
7.575 	5.12976e-08 	0.749533
7.585 	5.12976e-08 	0.749533
7.595 	5.12975e-08 	0.749533
7.605 	5.12974e-08 	0.749533
7.615 	5.12973e-08 	0.749533
7.625 	5.12972e-08 	0.749533
7.635 	5.12971e-08 	0.749533
7.645 	5.1297e-08 	0.749533
7.655 	5.12969e-08 	0.749533
7.665 	5.12968e-08 	0.749533
7.675 	5.12967e-08 	0.749532
7.685 	5.12966e-08 	0.749532
7.695 	5.12964e-08 	0.749532
7.705 	5.12963e-08 	0.749532
7.715 	5.12961e-08 	0.749532
7.725 	5.12959e-08 	0.749532
7.735 	5.12957e-08 	0.749532
7.745 	5.12955e-08 	0.749532
7.755 	5.12953e-08 	0.749532
7.765 	5.12951e-08 	0.749532
7.775 	5.12949e-08 	0.749532
7.785 	5.12946e-08 	0.749532
7.795 	5.12943e-08 	0.749531
7.805 	5.1294e-08 	0.749531
7.815 	5.12937e-08 	0.749531
7.825 	5.12934e-08 	0.749531
7.835 	5.12931e-08 	0.749531
7.845 	5.12927e-08 	0.749531
7.855 	5.12923e-08 	0.74953
7.865 	5.12919e-08 	0.74953
7.875 	5.12914e-08 	0.74953
7.885 	5.1291e-08 	0.74953
7.895 	5.12905e-08 	0.74953
7.905 	5.12899e-08 	0.749529
7.915 	5.12894e-08 	0.749529
7.925 	5.12888e-08 	0.749529
7.935 	5.12881e-08 	0.749528
7.945 	5.12875e-08 	0.749528
7.955 	5.12867e-08 	0.749528
7.965 	5.1286e-08 	0.749527
7.975 	5.12852e-08 	0.749527
7.985 	5.12843e-08 	0.749526
7.995 	5.12834e-08 	0.749526
8.005 	5.12825e-08 	0.749525
8.015 	5.12814e-08 	0.749525
8.025 	5.12804e-08 	0.749524
8.035 	5.12792e-08 	0.749524
8.045 	5.1278e-08 	0.749523
8.055 	5.12768e-08 	0.749522
8.065 	5.12754e-08 	0.749522
8.075 	5.1274e-08 	0.749521
8.085 	5.12725e-08 	0.74952
8.095 	5.12709e-08 	0.749519
8.105 	5.12692e-08 	0.749518
8.115 	5.12674e-08 	0.749517
8.125 	5.12655e-08 	0.749516
8.135 	5.12635e-08 	0.749515
8.145 	5.12614e-08 	0.749514
8.155 	5.12592e-08 	0.749512
8.165 	5.12569e-08 	0.749511
8.175 	5.12544e-08 	0.74951
8.185 	5.12518e-08 	0.749508
8.195 	5.12491e-08 	0.749506
8.205 	5.12462e-08 	0.749505
8.215 	5.12431e-08 	0.749503
8.225 	5.12399e-08 	0.749501
8.235 	5.12365e-08 	0.749499
8.245 	5.12329e-08 	0.749497
8.255 	5.12291e-08 	0.749494
8.265 	5.12252e-08 	0.749492
8.275 	5.1221e-08 	0.749489
8.285 	5.12166e-08 	0.749487
8.295 	5.12119e-08 	0.749484
8.305 	5.12071e-08 	0.749481
8.315 	5.12019e-08 	0.749477
8.325 	5.11965e-08 	0.749474
8.335 	5.11909e-08 	0.74947
8.345 	5.11849e-08 	0.749466
8.355 	5.11786e-08 	0.749462
8.365 	5.1172e-08 	0.749458
8.375 	5.11651e-08 	0.749453
8.385 	5.11578e-08 	0.749448
8.395 	5.11502e-08 	0.749443
8.405 	5.11422e-08 	0.749438
8.415 	5.11337e-08 	0.749432
8.425 	5.11249e-08 	0.749426
8.435 	5.11156e-08 	0.749419
8.445 	5.11059e-08 	0.749413
8.455 	5.10957e-08 	0.749405
8.465 	5.1085e-08 	0.749398
8.475 	5.10738e-08 	0.74939
8.485 	5.1062e-08 	0.749382
8.495 	5.10497e-08 	0.749373
8.505 	5.10368e-08 	0.749363
8.515 	5.10233e-08 	0.749353
8.525 	5.10092e-08 	0.749343
8.535 	5.09944e-08 	0.749332
8.545 	5.09788e-08 	0.749321
8.555 	5.09626e-08 	0.749308
8.565 	5.09457e-08 	0.749296
8.575 	5.09279e-08 	0.749282
8.585 	5.09093e-08 	0.749268
8.595 	5.08899e-08 	0.749253
8.605 	5.08696e-08 	0.749237
8.615 	5.08484e-08 	0.749221
8.625 	5.08263e-08 	0.749203
8.635 	5.08031e-08 	0.749185
8.645 	5.0779e-08 	0.749166
8.655 	5.07538e-08 	0.749145
8.665 	5.07274e-08 	0.749124
8.675 	5.06999e-08 	0.749102
8.685 	5.06713e-08 	0.749078
8.695 	5.06413e-08 	0.749053
8.705 	5.06101e-08 	0.749028
8.715 	5.05776e-08 	0.749
8.725 	5.05437e-08 	0.748972
8.735 	5.05083e-08 	0.748942
8.745 	5.04715e-08 	0.74891
8.755 	5.04331e-08 	0.748877
8.765 	5.03932e-08 	0.748842
8.775 	5.03515e-08 	0.748806
8.785 	5.03082e-08 	0.748768
8.795 	5.02631e-08 	0.748728
8.805 	5.02162e-08 	0.748686
8.815 	5.01674e-08 	0.748642
8.825 	5.01166e-08 	0.748596
8.835 	5.00638e-08 	0.748548
8.845 	5.00088e-08 	0.748498
8.855 	4.99518e-08 	0.748445
8.865 	4.98924e-08 	0.748389
8.875 	4.98308e-08 	0.748331
8.885 	4.97668e-08 	0.748271
8.895 	4.97003e-08 	0.748207
8.905 	4.96313e-08 	0.748141
8.915 	4.95596e-08 	0.748072
8.925 	4.94852e-08 	0.747999
8.935 	4.94081e-08 	0.747923
8.945 	4.9328e-08 	0.747844
8.955 	4.9245e-08 	0.747761
8.965 	4.91589e-08 	0.747675
8.975 	4.90696e-08 	0.747584
8.985 	4.89771e-08 	0.74749
8.995 	4.88812e-08 	0.747391
9.005 	4.87819e-08 	0.747288
9.015 	4.8679e-08 	0.747181
9.025 	4.85725e-08 	0.747068
9.035 	4.84622e-08 	0.746951
9.045 	4.83481e-08 	0.746829
9.055 	4.82299e-08 	0.746702
9.065 	4.81077e-08 	0.746569
9.075 	4.79813e-08 	0.74643
9.085 	4.78505e-08 	0.746286
9.095 	4.77154e-08 	0.746135
9.105 	4.75756e-08 	0.745978
9.115 	4.74312e-08 	0.745815
9.125 	4.7282e-08 	0.745645
9.135 	4.71279e-08 	0.745467
9.145 	4.69687e-08 	0.745282
9.155 	4.68044e-08 	0.74509
9.165 	4.66347e-08 	0.74489
9.175 	4.64596e-08 	0.744681
9.185 	4.62789e-08 	0.744464
9.195 	4.60925e-08 	0.744239
9.205 	4.59003e-08 	0.744004
9.215 	4.57021e-08 	0.74376
9.225 	4.54977e-08 	0.743506
9.235 	4.52871e-08 	0.743242
9.245 	4.50701e-08 	0.742967
9.255 	4.48465e-08 	0.742682
9.265 	4.46162e-08 	0.742385
9.275 	4.43791e-08 	0.742077
9.285 	4.4135e-08 	0.741757
9.295 	4.38837e-08 	0.741424
9.305 	4.36252e-08 	0.741079
9.315 	4.33591e-08 	0.74072
9.325 	4.30855e-08 	0.740348
9.335 	4.28042e-08 	0.739961
9.345 	4.25149e-08 	0.73956
9.355 	4.22176e-08 	0.739144
9.365 	4.19121e-08 	0.738712
9.375 	4.15981e-08 	0.738263
9.385 	4.12757e-08 	0.737798
9.395 	4.09446e-08 	0.737316
9.405 	4.06047e-08 	0.736815
9.415 	4.02558e-08 	0.736296
9.425 	3.98977e-08 	0.735759
9.435 	3.95304e-08 	0.735201
9.445 	3.91536e-08 	0.734623
9.455 	3.87671e-08 	0.734024
9.465 	3.8371e-08 	0.733403
9.475 	3.79649e-08 	0.73276
9.485 	3.75488e-08 	0.732093
9.495 	3.71225e-08 	0.731403
9.505 	3.66858e-08 	0.730688
9.515 	3.62387e-08 	0.729947
9.525 	3.57809e-08 	0.72918
9.535 	3.53123e-08 	0.728386
9.545 	3.48328e-08 	0.727564
9.555 	3.43423e-08 	0.726712
9.565 	3.38406e-08 	0.725831
9.575 	3.33275e-08 	0.724918
9.585 	3.2803e-08 	0.723974
9.595 	3.22669e-08 	0.722997
9.605 	3.17192e-08 	0.721986
9.615 	3.11596e-08 	0.720939
9.625 	3.05881e-08 	0.719856
9.635 	3.00045e-08 	0.718735
9.645 	2.94088e-08 	0.717576
9.655 	2.88009e-08 	0.716377
9.665 	2.81806e-08 	0.715136
9.675 	2.75479e-08 	0.713852
9.685 	2.69026e-08 	0.712524
9.695 	2.62447e-08 	0.71115
9.705 	2.55742e-08 	0.709729
9.715 	2.48909e-08 	0.708259
9.725 	2.41948e-08 	0.706738
9.735 	2.34858e-08 	0.705165
9.745 	2.27639e-08 	0.703537
9.755 	2.2029e-08 	0.701853
9.765 	2.1281e-08 	0.700112
9.775 	2.05201e-08 	0.69831
9.785 	1.97461e-08 	0.696445
9.795 	1.8959e-08 	0.694516
9.805 	1.81588e-08 	0.692519
9.815 	1.73455e-08 	0.690453
9.825 	1.65191e-08 	0.688314
9.835 	1.56797e-08 	0.6861
9.845 	1.48272e-08 	0.683808
9.855 	1.39618e-08 	0.681435
9.865 	1.30833e-08 	0.678977
9.875 	1.2192e-08 	0.676431
9.885 	1.12879e-08 	0.673794
9.895 	1.0371e-08 	0.671061
9.905 	9.44141e-09 	0.668228
9.915 	8.49926e-09 	0.66529
9.925 	7.54464e-09 	0.662244
9.935 	6.57767e-09 	0.659083
9.945 	5.59848e-09 	0.655803
9.955 	4.60721e-09 	0.652397
9.965 	3.60401e-09 	0.64886
9.975 	2.58905e-09 	0.645184
9.985 	1.56251e-09 	0.641362
9.995 	5.24568e-10 	0.637386
