/*--------------------------------*- C++ -*----------------------------------*\
| =========                 |                                                 |
| \\      /  F ield         | OpenFOAM: The Open Source CFD Toolbox           |
|  \\    /   O peration     | Version:  2312                                  |
|   \\  /    A nd           | Website:  www.openfoam.com                      |
|    \\/     M anipulation  |                                                 |
\*---------------------------------------------------------------------------*/
FoamFile
{
    version     2.0;
    format      ascii;
    arch        "LSB;label=32;scalar=64";
    class       volScalarField;
    location    "0.07";
    object      T;
}
// * * * * * * * * * * * * * * * * * * * * * * * * * * * * * * * * * * * * * //

dimensions      [0 0 0 1 0 0 0];

internalField   nonuniform List<scalar> 
100
(
225.962
230.204
225.722
231.77
224.148
232.19
221.99
231.577
219.855
230.038
218.149
227.771
217.008
225.077
216.33
222.309
215.883
219.766
215.446
217.614
214.893
215.877
214.2
214.484
213.404
213.328
212.559
212.322
211.707
211.407
210.871
210.552
210.065
209.748
209.297
208.992
208.574
208.29
207.908
207.654
207.312
207.095
206.801
206.631
206.394
206.279
206.108
206.06
205.965
205.993
205.99
206.122
206.259
206.582
207.02
207.815
208.994
210.841
213.299
216.349
219.508
222.492
224.871
226.705
227.899
228.744
229.195
229.519
229.611
229.684
229.6
229.539
229.356
229.212
228.965
228.766
228.473
228.234
227.906
227.637
227.279
226.985
226.598
226.279
225.864
225.516
225.074
224.689
224.229
223.795
223.334
222.836
222.398
221.825
221.442
220.787
220.489
219.755
219.565
218.773
)
;

boundaryField
{
    sides
    {
        type            zeroGradient;
    }
    empty
    {
        type            empty;
    }
}


// ************************************************************************* //
