/*--------------------------------*- C++ -*----------------------------------*\
| =========                 |                                                 |
| \\      /  F ield         | OpenFOAM: The Open Source CFD Toolbox           |
|  \\    /   O peration     | Version:  2312                                  |
|   \\  /    A nd           | Website:  www.openfoam.com                      |
|    \\/     M anipulation  |                                                 |
\*---------------------------------------------------------------------------*/
FoamFile
{
    version     2.0;
    format      ascii;
    arch        "LSB;label=32;scalar=64";
    class       volScalarField;
    location    "0.07";
    object      thermo:e;
}
// * * * * * * * * * * * * * * * * * * * * * * * * * * * * * * * * * * * * * //

dimensions      [0 2 -2 0 0 0 0];

internalField   nonuniform List<scalar> 
100
(
162512
165563
162339
166689
161207
166991
159655
166550
158120
165444
156893
163813
156072
161875
155584
159884
155263
158055
154949
156508
154551
155259
154052
154257
153480
153426
152872
152702
152260
152044
151659
151429
151079
150851
150526
150307
150007
149802
149528
149344
149099
148943
148731
148609
148438
148356
148233
148198
148130
148150
148148
148243
148342
148574
148889
149461
150309
151637
153404
155598
157870
160016
161727
163046
163905
164513
164837
165070
165137
165189
165129
165085
164953
164850
164671
164528
164318
164146
163910
163717
163459
163248
162969
162740
162441
162191
161873
161596
161266
160953
160621
160263
159949
159536
159261
158790
158576
158048
157911
157342
)
;

boundaryField
{
    sides
    {
        type            zeroGradient;
    }
    empty
    {
        type            empty;
    }
}


// ************************************************************************* //
