/*--------------------------------*- C++ -*----------------------------------*\
| =========                 |                                                 |
| \\      /  F ield         | OpenFOAM: The Open Source CFD Toolbox           |
|  \\    /   O peration     | Version:  2312                                  |
|   \\  /    A nd           | Website:  www.openfoam.com                      |
|    \\/     M anipulation  |                                                 |
\*---------------------------------------------------------------------------*/
FoamFile
{
    version     2.0;
    format      ascii;
    arch        "LSB;label=32;scalar=64";
    class       volVectorField;
    location    "0.07";
    object      U;
}
// * * * * * * * * * * * * * * * * * * * * * * * * * * * * * * * * * * * * * //

dimensions      [0 1 -1 0 0 0 0];

internalField   nonuniform List<vector> 
100
(
(189.678 0 0)
(191.818 0 0)
(192.833 0 0)
(194.985 0 0)
(195.887 0 0)
(197.841 0 0)
(198.755 0 0)
(200.392 0 0)
(201.449 0 0)
(202.697 0 0)
(203.967 0 0)
(204.838 0 0)
(206.298 0 0)
(206.886 0 0)
(208.438 0 0)
(208.89 0 0)
(210.406 0 0)
(210.858 0 0)
(212.243 0 0)
(212.778 0 0)
(213.995 0 0)
(214.631 0 0)
(215.693 0 0)
(216.408 0 0)
(217.352 0 0)
(218.109 0 0)
(218.97 0 0)
(219.736 0 0)
(220.542 0 0)
(221.294 0 0)
(222.056 0 0)
(222.783 0 0)
(223.504 0 0)
(224.196 0 0)
(224.874 0 0)
(225.526 0 0)
(226.158 0 0)
(226.762 0 0)
(227.342 0 0)
(227.893 0 0)
(228.416 0 0)
(228.908 0 0)
(229.37 0 0)
(229.798 0 0)
(230.194 0 0)
(230.555 0 0)
(230.881 0 0)
(231.165 0 0)
(231.404 0 0)
(231.579 0 0)
(231.664 0 0)
(231.597 0 0)
(231.274 0 0)
(230.497 0 0)
(228.947 0 0)
(226.149 0 0)
(221.569 0 0)
(214.862 0 0)
(206.247 0 0)
(196.652 0 0)
(187.373 0 0)
(179.507 0 0)
(173.552 0 0)
(169.453 0 0)
(166.836 0 0)
(165.272 0 0)
(164.395 0 0)
(163.945 0 0)
(163.752 0 0)
(163.711 0 0)
(163.76 0 0)
(163.861 0 0)
(163.994 0 0)
(164.144 0 0)
(164.307 0 0)
(164.477 0 0)
(164.653 0 0)
(164.835 0 0)
(165.021 0 0)
(165.213 0 0)
(165.41 0 0)
(165.615 0 0)
(165.825 0 0)
(166.044 0 0)
(166.269 0 0)
(166.503 0 0)
(166.746 0 0)
(166.993 0 0)
(167.256 0 0)
(167.517 0 0)
(167.801 0 0)
(168.076 0 0)
(168.386 0 0)
(168.679 0 0)
(169.02 0 0)
(169.339 0 0)
(169.718 0 0)
(170.075 0 0)
(170.497 0 0)
(170.886 0 0)
)
;

boundaryField
{
    sides
    {
        type            mywaveTransmissive;
        gamma           1.4;
        value           nonuniform List<vector> 2((170.922 0 0) (190.206 0 0));
    }
    empty
    {
        type            empty;
    }
}


// ************************************************************************* //
