/*--------------------------------*- C++ -*----------------------------------*\
| =========                 |                                                 |
| \\      /  F ield         | OpenFOAM: The Open Source CFD Toolbox           |
|  \\    /   O peration     | Version:  2312                                  |
|   \\  /    A nd           | Website:  www.openfoam.com                      |
|    \\/     M anipulation  |                                                 |
\*---------------------------------------------------------------------------*/
FoamFile
{
    version     2.0;
    format      ascii;
    arch        "LSB;label=32;scalar=64";
    class       volScalarField;
    location    "0.051";
    object      p;
}
// * * * * * * * * * * * * * * * * * * * * * * * * * * * * * * * * * * * * * //

dimensions      [1 -1 -2 0 0 0 0];

internalField   nonuniform List<scalar> 
100
(
31527.1
31395.1
31194.3
30999.3
30803.6
30609
30418.4
30224.4
30040.7
29844.4
29672.8
29467.7
29317.7
29092.5
28977.8
28718.4
28653.2
28348.2
28339.2
27990.2
28025.5
27657
27699.4
27361.6
27349.5
27113.7
26969.9
26916.7
26560.8
26767.9
26130.2
26655.7
25696.8
26557
25291.8
26437.7
24953.6
26263.5
24712.5
26016.7
24575.2
25708.6
24519.8
25376.4
24506.7
25065.9
24498.9
24811.4
24477
24625.8
24442.2
24504.4
24407.1
24434.6
24384.7
24404.6
24382.4
24405.5
24401.7
24430.7
24440
24474.6
24493.1
24531.9
24557.1
24599.7
24631
24680.2
24724
24794.9
24882.4
25038.7
25289.6
25737.7
26453.3
27521.4
28875.1
30375.1
31775.4
32940.9
33784.9
34370.8
34734.7
34976.6
35115.8
35218.1
35274.4
35327.3
35355.6
35391.6
35410.8
35440.9
35457.3
35485.3
35501.1
35528.3
35544.5
35571.4
35588.3
35612.1
)
;

boundaryField
{
    sides
    {
        type            zeroGradient;
    }
    empty
    {
        type            empty;
    }
}


// ************************************************************************* //
