/*--------------------------------*- C++ -*----------------------------------*\
| =========                 |                                                 |
| \\      /  F ield         | OpenFOAM: The Open Source CFD Toolbox           |
|  \\    /   O peration     | Version:  2312                                  |
|   \\  /    A nd           | Website:  www.openfoam.com                      |
|    \\/     M anipulation  |                                                 |
\*---------------------------------------------------------------------------*/
FoamFile
{
    version     2.0;
    format      ascii;
    arch        "LSB;label=32;scalar=64";
    class       volScalarField;
    location    "0.051";
    object      rho;
}
// * * * * * * * * * * * * * * * * * * * * * * * * * * * * * * * * * * * * * //

dimensions      [1 -3 0 0 0 0 0];

internalField   nonuniform List<scalar> 
100
(
0.480524
0.479171
0.477345
0.475501
0.473613
0.471685
0.469699
0.467655
0.46553
0.463345
0.461059
0.458735
0.456291
0.453868
0.451305
0.448853
0.446244
0.443838
0.441284
0.43898
0.436594
0.434407
0.432293
0.430207
0.428439
0.426422
0.42503
0.423053
0.422028
0.420075
0.419374
0.417462
0.416995
0.4152
0.41482
0.413287
0.412807
0.4117
0.410967
0.410388
0.409367
0.409289
0.408095
0.408365
0.407218
0.407642
0.406753
0.407194
0.406689
0.407116
0.407012
0.407476
0.407724
0.408297
0.40883
0.409557
0.410314
0.411198
0.412124
0.413134
0.414173
0.415259
0.416354
0.417466
0.418569
0.419671
0.420764
0.421872
0.42303
0.424336
0.425977
0.428323
0.432029
0.438089
0.447605
0.461098
0.47772
0.495251
0.511187
0.523905
0.533064
0.53919
0.543106
0.545563
0.54711
0.548112
0.548789
0.54928
0.549658
0.549975
0.550252
0.550509
0.550752
0.55099
0.551223
0.551455
0.551687
0.55192
0.552155
0.552325
)
;

boundaryField
{
    sides
    {
        type            zeroGradient;
    }
    empty
    {
        type            empty;
    }
}


// ************************************************************************* //
