/*--------------------------------*- C++ -*----------------------------------*\
| =========                 |                                                 |
| \\      /  F ield         | OpenFOAM: The Open Source CFD Toolbox           |
|  \\    /   O peration     | Version:  2312                                  |
|   \\  /    A nd           | Website:  www.openfoam.com                      |
|    \\/     M anipulation  |                                                 |
\*---------------------------------------------------------------------------*/
FoamFile
{
    version     2.0;
    format      ascii;
    arch        "LSB;label=32;scalar=64";
    class       volScalarField;
    location    "0.002";
    object      p;
}
// * * * * * * * * * * * * * * * * * * * * * * * * * * * * * * * * * * * * * //

dimensions      [1 -1 -2 0 0 0 0];

internalField   nonuniform List<scalar> 
100
(
413711
413711
413711
413711
413711
413711
413711
413711
413711
413711
413711
413711
413711
413711
413711
413711
413711
413711
413709
413705
413695
413669
413610
413480
413215
412704
411777
410202
407690
403922
398603
391507
382525
371680
359118
345079
329864
313789
297169
280291
263409
246741
230473
214762
199745
185546
172286
160092
149107
139499
131451
125120
120561
117634
115988
115188
114841
114713
114686
114704
114744
114795
114852
114912
114974
115037
115096
115146
115148
114943
113978
110858
103274
89628.9
72105.9
56637.3
47368.7
43383.2
41994.3
41556.6
41424.8
41386.3
41375.3
41372.3
41371.4
41371.2
41371.2
41371.1
41371.1
41371.1
41371.1
41371.1
41371.1
41371.1
41371.1
41371.1
41371.1
41371.1
41371.1
41371.1
)
;

boundaryField
{
    sides
    {
        type            zeroGradient;
    }
    empty
    {
        type            empty;
    }
}


// ************************************************************************* //
