/*--------------------------------*- C++ -*----------------------------------*\
| =========                 |                                                 |
| \\      /  F ield         | OpenFOAM: The Open Source CFD Toolbox           |
|  \\    /   O peration     | Version:  2312                                  |
|   \\  /    A nd           | Website:  www.openfoam.com                      |
|    \\/     M anipulation  |                                                 |
\*---------------------------------------------------------------------------*/
FoamFile
{
    version     2.0;
    format      ascii;
    arch        "LSB;label=32;scalar=64";
    class       volScalarField;
    location    "0.002";
    object      rho;
}
// * * * * * * * * * * * * * * * * * * * * * * * * * * * * * * * * * * * * * //

dimensions      [1 -3 0 0 0 0 0];

internalField   nonuniform List<scalar> 
100
(
1.16102
1.16102
1.16102
1.16102
1.16102
1.16102
1.16102
1.16102
1.16102
1.16102
1.16102
1.16102
1.16102
1.16102
1.16102
1.16102
1.16102
1.16102
1.16102
1.16101
1.16099
1.16095
1.16085
1.16064
1.1602
1.15935
1.1578
1.15518
1.15098
1.14465
1.13566
1.12356
1.1081
1.08918
1.06695
1.04167
1.01373
0.983584
0.951685
0.918475
0.884368
0.849742
0.814942
0.780291
0.746098
0.712678
0.680371
0.649562
0.620706
0.594323
0.570951
0.550965
0.534235
0.519699
0.505244
0.488473
0.467411
0.441391
0.411172
0.378592
0.345931
0.315289
0.288186
0.265444
0.247267
0.233401
0.223312
0.216323
0.211697
0.208614
0.205936
0.201743
0.193184
0.177968
0.157571
0.138122
0.125319
0.119328
0.117123
0.116408
0.116191
0.116127
0.116109
0.116104
0.116102
0.116102
0.116102
0.116102
0.116102
0.116102
0.116102
0.116102
0.116102
0.116102
0.116102
0.116102
0.116102
0.116102
0.116102
0.116102
)
;

boundaryField
{
    sides
    {
        type            zeroGradient;
    }
    empty
    {
        type            empty;
    }
}


// ************************************************************************* //
