/*--------------------------------*- C++ -*----------------------------------*\
| =========                 |                                                 |
| \\      /  F ield         | OpenFOAM: The Open Source CFD Toolbox           |
|  \\    /   O peration     | Version:  2312                                  |
|   \\  /    A nd           | Website:  www.openfoam.com                      |
|    \\/     M anipulation  |                                                 |
\*---------------------------------------------------------------------------*/
FoamFile
{
    version     2.0;
    format      ascii;
    arch        "LSB;label=32;scalar=64";
    class       volScalarField;
    location    "0.002";
    object      T;
}
// * * * * * * * * * * * * * * * * * * * * * * * * * * * * * * * * * * * * * //

dimensions      [0 0 0 1 0 0 0];

internalField   nonuniform List<scalar> 
100
(
300
300
300
300
300
300
300
300
300
300
300
300
300
300
300
300
300
300
299.999
299.998
299.995
299.987
299.97
299.932
299.853
299.701
299.427
298.959
298.213
297.091
295.499
293.363
290.633
287.297
283.372
278.904
273.953
268.59
262.89
256.924
250.761
244.465
238.098
231.72
225.395
219.191
213.19
207.497
202.244
197.612
193.833
191.19
189.994
190.566
193.276
198.532
206.853
218.804
234.829
255.078
279.257
306.532
335.527
364.465
391.471
414.952
433.923
448.134
457.937
463.877
465.962
462.626
450.075
424.005
385.265
345.226
318.228
306.085
301.866
300.552
300.159
300.045
300.012
300.003
300.001
300
300
300
300
300
300
300
300
300
300
300
300
300
300
300
)
;

boundaryField
{
    sides
    {
        type            zeroGradient;
    }
    empty
    {
        type            empty;
    }
}


// ************************************************************************* //
