/*--------------------------------*- C++ -*----------------------------------*\
| =========                 |                                                 |
| \\      /  F ield         | OpenFOAM: The Open Source CFD Toolbox           |
|  \\    /   O peration     | Version:  2312                                  |
|   \\  /    A nd           | Website:  www.openfoam.com                      |
|    \\/     M anipulation  |                                                 |
\*---------------------------------------------------------------------------*/
FoamFile
{
    version     2.0;
    format      ascii;
    arch        "LSB;label=32;scalar=64";
    class       volScalarField;
    location    "0.002";
    object      thermo:e;
}
// * * * * * * * * * * * * * * * * * * * * * * * * * * * * * * * * * * * * * //

dimensions      [0 2 -2 0 0 0 0];

internalField   nonuniform List<scalar> 
100
(
515400
515400
515400
515400
515400
515400
515400
515400
515400
515400
515400
515400
515400
515400
515400
515400
515400
515400
515399
515397
515391
515378
515348
515282
515147
514887
514415
513612
512330
510402
507668
503997
499308
493577
486834
479157
470651
461438
451645
441396
430808
419991
409053
398095
387228
376570
366261
356479
347455
339498
333005
328464
326409
327392
332047
341078
355373
375905
403436
438224
479763
526623
576436
626151
672547
712887
745480
769895
786735
796941
800523
794792
773228
728440
661885
593099
546716
525854
518605
516348
515674
515477
515421
515406
515401
515400
515400
515400
515400
515400
515400
515400
515400
515400
515400
515400
515400
515400
515400
515400
)
;

boundaryField
{
    sides
    {
        type            zeroGradient;
    }
    empty
    {
        type            empty;
    }
}


// ************************************************************************* //
