/*--------------------------------*- C++ -*----------------------------------*\
| =========                 |                                                 |
| \\      /  F ield         | OpenFOAM: The Open Source CFD Toolbox           |
|  \\    /   O peration     | Version:  2312                                  |
|   \\  /    A nd           | Website:  www.openfoam.com                      |
|    \\/     M anipulation  |                                                 |
\*---------------------------------------------------------------------------*/
FoamFile
{
    version     2.0;
    format      ascii;
    arch        "LSB;label=32;scalar=64";
    class       volVectorField;
    location    "0.002";
    object      U;
}
// * * * * * * * * * * * * * * * * * * * * * * * * * * * * * * * * * * * * * //

dimensions      [0 1 -1 0 0 0 0];

internalField   nonuniform List<vector> 
100
(
(5.15542e-13 0 0)
(4.94088e-13 0 0)
(5.23883e-13 0 0)
(1.11633e-12 0 0)
(5.02814e-12 0 0)
(2.83174e-11 0 0)
(1.57488e-10 0 0)
(8.33974e-10 0 0)
(4.19195e-09 0 0)
(1.99983e-08 0 0)
(9.05567e-08 0 0)
(3.89258e-07 0 0)
(1.58842e-06 0 0)
(6.15325e-06 0 0)
(2.26267e-05 0 0)
(7.89705e-05 0 0)
(0.000261549 0 0)
(0.000821827 0 0)
(0.00244913 0 0)
(0.00691974 0 0)
(0.0185279 0 0)
(0.046991 0 0)
(0.112831 0 0)
(0.25636 0 0)
(0.550909 0 0)
(1.1194 0 0)
(2.15064 0 0)
(3.90852 0 0)
(6.72619 0 0)
(10.9801 0 0)
(17.0458 0 0)
(25.2473 0 0)
(35.8136 0 0)
(48.8557 0 0)
(64.3673 0 0)
(82.2438 0 0)
(102.311 0 0)
(124.353 0 0)
(148.137 0 0)
(173.428 0 0)
(199.996 0 0)
(227.621 0 0)
(256.083 0 0)
(285.156 0 0)
(314.593 0 0)
(344.102 0 0)
(373.319 0 0)
(401.765 0 0)
(428.806 0 0)
(453.619 0 0)
(475.233 0 0)
(492.713 0 0)
(505.519 0 0)
(513.843 0 0)
(518.625 0 0)
(521.119 0 0)
(522.4 0 0)
(523.107 0 0)
(523.564 0 0)
(523.92 0 0)
(524.239 0 0)
(524.547 0 0)
(524.857 0 0)
(525.172 0 0)
(525.491 0 0)
(525.809 0 0)
(526.111 0 0)
(526.352 0 0)
(526.303 0 0)
(524.987 0 0)
(519.165 0 0)
(500.943 0 0)
(457.239 0 0)
(376.319 0 0)
(262.158 0 0)
(144.754 0 0)
(61.9039 0 0)
(21.7395 0 0)
(6.85543 0 0)
(2.05217 0 0)
(0.595394 0 0)
(0.16821 0 0)
(0.0462422 0 0)
(0.0123421 0 0)
(0.00319022 0 0)
(0.000796728 0 0)
(0.000191835 0 0)
(4.44474e-05 0 0)
(9.89297e-06 0 0)
(2.11207e-06 0 0)
(4.31913e-07 0 0)
(8.45001e-08 0 0)
(1.57978e-08 0 0)
(2.81941e-09 0 0)
(4.79896e-10 0 0)
(7.79336e-11 0 0)
(1.20887e-11 0 0)
(1.71089e-12 0 0)
(2.55658e-13 0 0)
(8.56286e-14 0 0)
)
;

boundaryField
{
    sides
    {
        type            zeroGradient;
    }
    empty
    {
        type            empty;
    }
}


// ************************************************************************* //
