/*--------------------------------*- C++ -*----------------------------------*\
| =========                 |                                                 |
| \\      /  F ield         | OpenFOAM: The Open Source CFD Toolbox           |
|  \\    /   O peration     | Version:  2312                                  |
|   \\  /    A nd           | Website:  www.openfoam.com                      |
|    \\/     M anipulation  |                                                 |
\*---------------------------------------------------------------------------*/
FoamFile
{
    version     2.0;
    format      ascii;
    arch        "LSB;label=32;scalar=64";
    class       volScalarField;
    location    "0.01";
    object      p;
}
// * * * * * * * * * * * * * * * * * * * * * * * * * * * * * * * * * * * * * //

dimensions      [1 -1 -2 0 0 0 0];

internalField   nonuniform List<scalar> 
100
(
267797
263733
259315
254905
250541
246228
241966
237758
233602
229501
225455
221464
217529
213650
209827
206061
202353
198701
195108
191572
188094
184675
181314
178013
174771
171588
168466
165405
162405
159467
156593
153783
151038
148362
145754
143219
140758
138376
136075
133861
131738
129713
127792
125981
124289
122722
121287
119990
118835
117825
116959
116232
115636
115161
114793
114515
114313
114171
114075
114013
113975
113954
113945
113942
113943
113947
113953
113959
113966
113973
113982
113993
114009
114034
114074
114137
114236
114383
114594
114878
115240
115675
116165
116683
117197
117674
118090
118429
118689
118876
119003
119084
119132
119160
119175
119184
119188
119189
119189
119188
)
;

boundaryField
{
    sides
    {
        type            zeroGradient;
    }
    empty
    {
        type            empty;
    }
}


// ************************************************************************* //
