/*--------------------------------*- C++ -*----------------------------------*\
| =========                 |                                                 |
| \\      /  F ield         | OpenFOAM: The Open Source CFD Toolbox           |
|  \\    /   O peration     | Version:  2312                                  |
|   \\  /    A nd           | Website:  www.openfoam.com                      |
|    \\/     M anipulation  |                                                 |
\*---------------------------------------------------------------------------*/
FoamFile
{
    version     2.0;
    format      ascii;
    arch        "LSB;label=32;scalar=64";
    class       volScalarField;
    location    "0.01";
    object      rho;
}
// * * * * * * * * * * * * * * * * * * * * * * * * * * * * * * * * * * * * * //

dimensions      [1 -3 0 0 0 0 0];

internalField   nonuniform List<scalar> 
100
(
0.896517
0.888413
0.87954
0.87062
0.861729
0.852877
0.844068
0.835303
0.826585
0.817918
0.809302
0.800741
0.792236
0.783789
0.775403
0.76708
0.758821
0.750629
0.742505
0.734452
0.726472
0.718566
0.710738
0.702988
0.69532
0.687736
0.68024
0.672834
0.665522
0.658307
0.651195
0.64419
0.637298
0.630525
0.62388
0.61737
0.611007
0.604802
0.598767
0.592919
0.587275
0.581854
0.576677
0.571767
0.567149
0.562847
0.558884
0.555281
0.552054
0.549214
0.546761
0.544686
0.54297
0.541585
0.540492
0.53965
0.539015
0.538544
0.538197
0.537942
0.537751
0.537601
0.537478
0.53737
0.537268
0.537166
0.537062
0.536952
0.536834
0.536708
0.536573
0.53643
0.536285
0.536144
0.536018
0.535927
0.535892
0.535937
0.536083
0.536333
0.536663
0.53701
0.537264
0.537268
0.536836
0.53576
0.533838
0.530886
0.526743
0.521283
0.514414
0.50608
0.496268
0.485013
0.472402
0.45858
0.443753
0.428234
0.412688
0.399396
)
;

boundaryField
{
    sides
    {
        type            zeroGradient;
    }
    empty
    {
        type            empty;
    }
}


// ************************************************************************* //
