/*--------------------------------*- C++ -*----------------------------------*\
| =========                 |                                                 |
| \\      /  F ield         | OpenFOAM: The Open Source CFD Toolbox           |
|  \\    /   O peration     | Version:  2312                                  |
|   \\  /    A nd           | Website:  www.openfoam.com                      |
|    \\/     M anipulation  |                                                 |
\*---------------------------------------------------------------------------*/
FoamFile
{
    version     2.0;
    format      ascii;
    arch        "LSB;label=32;scalar=64";
    class       volScalarField;
    location    "0.01";
    object      T;
}
// * * * * * * * * * * * * * * * * * * * * * * * * * * * * * * * * * * * * * //

dimensions      [0 0 0 1 0 0 0];

internalField   nonuniform List<scalar> 
100
(
251.484
249.927
248.219
246.498
244.778
243.06
241.347
239.637
237.932
236.232
234.538
232.849
231.167
229.491
227.823
226.162
224.508
222.863
221.227
219.599
217.982
216.374
214.776
213.19
211.616
210.053
208.504
206.968
205.447
203.942
202.453
200.982
199.53
198.099
196.691
195.307
193.951
192.624
191.33
190.073
188.857
187.686
186.566
185.503
184.501
183.567
182.707
181.926
181.229
180.618
180.094
179.657
179.301
179.021
178.809
178.655
178.55
178.484
178.449
178.436
178.441
178.457
178.483
178.514
178.55
178.591
178.634
178.68
178.73
178.784
178.843
178.908
178.981
179.067
179.171
179.302
179.469
179.685
179.967
180.329
180.786
181.351
182.033
182.844
183.797
184.916
186.237
187.811
189.704
191.993
194.764
198.105
202.105
206.843
212.392
218.809
226.128
234.326
243.153
251.241
)
;

boundaryField
{
    sides
    {
        type            zeroGradient;
    }
    empty
    {
        type            empty;
    }
}


// ************************************************************************* //
