/*--------------------------------*- C++ -*----------------------------------*\
| =========                 |                                                 |
| \\      /  F ield         | OpenFOAM: The Open Source CFD Toolbox           |
|  \\    /   O peration     | Version:  2312                                  |
|   \\  /    A nd           | Website:  www.openfoam.com                      |
|    \\/     M anipulation  |                                                 |
\*---------------------------------------------------------------------------*/
FoamFile
{
    version     2.0;
    format      ascii;
    arch        "LSB;label=32;scalar=64";
    class       volScalarField;
    location    "0.01";
    object      thermo:e;
}
// * * * * * * * * * * * * * * * * * * * * * * * * * * * * * * * * * * * * * //

dimensions      [0 2 -2 0 0 0 0];

internalField   nonuniform List<scalar> 
100
(
432050
429375
426441
423484
420528
417577
414633
411696
408767
405847
402936
400035
397145
394266
391400
388546
385706
382879
380068
377272
374492
371730
368986
366261
363555
360871
358210
355572
352958
350372
347814
345287
342793
340335
337915
335538
333207
330928
328705
326546
324457
322445
320521
318693
316972
315368
313891
312549
311351
310302
309402
308650
308039
307558
307193
306929
306749
306636
306575
306554
306561
306590
306633
306687
306750
306819
306893
306973
307059
307151
307252
307363
307490
307638
307817
308040
308327
308699
309183
309805
310591
311561
312733
314125
315763
317685
319955
322659
325911
329843
334604
340345
347216
355357
364890
375914
388488
402572
417736
431632
)
;

boundaryField
{
    sides
    {
        type            zeroGradient;
    }
    empty
    {
        type            empty;
    }
}


// ************************************************************************* //
