/*--------------------------------*- C++ -*----------------------------------*\
| =========                 |                                                 |
| \\      /  F ield         | OpenFOAM: The Open Source CFD Toolbox           |
|  \\    /   O peration     | Version:  2312                                  |
|   \\  /    A nd           | Website:  www.openfoam.com                      |
|    \\/     M anipulation  |                                                 |
\*---------------------------------------------------------------------------*/
FoamFile
{
    version     2.0;
    format      ascii;
    arch        "LSB;label=32;scalar=64";
    class       volVectorField;
    location    "0.01";
    object      U;
}
// * * * * * * * * * * * * * * * * * * * * * * * * * * * * * * * * * * * * * //

dimensions      [0 1 -1 0 0 0 0];

internalField   nonuniform List<vector> 
100
(
(207.883 0 0)
(213.676 0 0)
(220.067 0 0)
(226.545 0 0)
(233.055 0 0)
(239.591 0 0)
(246.152 0 0)
(252.735 0 0)
(259.34 0 0)
(265.965 0 0)
(272.609 0 0)
(279.271 0 0)
(285.95 0 0)
(292.645 0 0)
(299.354 0 0)
(306.076 0 0)
(312.811 0 0)
(319.556 0 0)
(326.31 0 0)
(333.073 0 0)
(339.841 0 0)
(346.614 0 0)
(353.389 0 0)
(360.163 0 0)
(366.935 0 0)
(373.7 0 0)
(380.456 0 0)
(387.199 0 0)
(393.923 0 0)
(400.624 0 0)
(407.295 0 0)
(413.93 0 0)
(420.521 0 0)
(427.057 0 0)
(433.53 0 0)
(439.925 0 0)
(446.23 0 0)
(452.428 0 0)
(458.502 0 0)
(464.43 0 0)
(470.189 0 0)
(475.754 0 0)
(481.096 0 0)
(486.185 0 0)
(490.989 0 0)
(495.477 0 0)
(499.618 0 0)
(503.383 0 0)
(506.75 0 0)
(509.707 0 0)
(512.249 0 0)
(514.384 0 0)
(516.132 0 0)
(517.526 0 0)
(518.605 0 0)
(519.415 0 0)
(520.004 0 0)
(520.417 0 0)
(520.697 0 0)
(520.879 0 0)
(520.99 0 0)
(521.054 0 0)
(521.087 0 0)
(521.1 0 0)
(521.1 0 0)
(521.094 0 0)
(521.084 0 0)
(521.071 0 0)
(521.058 0 0)
(521.042 0 0)
(521.021 0 0)
(520.992 0 0)
(520.946 0 0)
(520.868 0 0)
(520.739 0 0)
(520.528 0 0)
(520.199 0 0)
(519.71 0 0)
(519.019 0 0)
(518.097 0 0)
(516.938 0 0)
(515.568 0 0)
(514.049 0 0)
(512.467 0 0)
(510.922 0 0)
(509.508 0 0)
(508.291 0 0)
(507.307 0 0)
(506.559 0 0)
(506.021 0 0)
(505.656 0 0)
(505.419 0 0)
(505.27 0 0)
(505.177 0 0)
(505.116 0 0)
(505.073 0 0)
(505.038 0 0)
(505.008 0 0)
(504.98 0 0)
(504.952 0 0)
)
;

boundaryField
{
    sides
    {
        type            zeroGradient;
    }
    empty
    {
        type            empty;
    }
}


// ************************************************************************* //
