/*--------------------------------*- C++ -*----------------------------------*\
| =========                 |                                                 |
| \\      /  F ield         | OpenFOAM: The Open Source CFD Toolbox           |
|  \\    /   O peration     | Version:  2312                                  |
|   \\  /    A nd           | Website:  www.openfoam.com                      |
|    \\/     M anipulation  |                                                 |
\*---------------------------------------------------------------------------*/
FoamFile
{
    version     2.0;
    format      ascii;
    arch        "LSB;label=32;scalar=64";
    class       volScalarField;
    location    "0.0007";
    object      p;
}
// * * * * * * * * * * * * * * * * * * * * * * * * * * * * * * * * * * * * * //

dimensions      [1 -1 -2 0 0 0 0];

internalField   nonuniform List<scalar> 
100
(
6.29542e+08
6.29542e+08
6.29542e+08
6.29542e+08
6.29542e+08
6.29542e+08
6.29542e+08
6.29542e+08
6.29542e+08
6.29542e+08
6.29542e+08
6.29542e+08
6.29542e+08
6.29542e+08
6.29542e+08
6.29542e+08
6.29542e+08
6.29542e+08
6.29542e+08
6.29542e+08
6.29542e+08
6.29542e+08
6.29542e+08
6.29542e+08
6.29542e+08
6.29542e+08
6.29541e+08
6.29541e+08
6.29541e+08
6.29541e+08
6.29541e+08
6.29541e+08
6.2954e+08
6.2954e+08
6.2954e+08
6.2954e+08
6.2954e+08
6.2954e+08
6.29539e+08
6.29539e+08
6.29539e+08
6.29539e+08
6.29538e+08
6.29538e+08
6.29538e+08
6.29538e+08
6.29538e+08
6.29537e+08
6.29537e+08
6.29537e+08
6.29537e+08
6.29537e+08
6.29536e+08
6.29536e+08
6.29536e+08
6.29536e+08
6.29536e+08
6.29535e+08
6.29535e+08
6.29535e+08
6.29535e+08
6.29535e+08
6.29535e+08
6.29535e+08
6.29534e+08
6.29534e+08
6.29534e+08
6.29534e+08
6.29534e+08
6.29534e+08
6.29534e+08
6.29534e+08
6.29534e+08
6.29534e+08
6.29533e+08
6.29533e+08
6.29533e+08
6.29533e+08
6.29533e+08
6.29533e+08
6.29533e+08
6.29533e+08
6.29533e+08
6.29533e+08
6.29533e+08
6.29533e+08
6.29533e+08
6.29533e+08
6.29533e+08
6.29533e+08
6.29533e+08
6.29533e+08
6.29532e+08
6.29532e+08
6.29532e+08
6.29532e+08
6.29532e+08
6.29532e+08
6.29532e+08
6.29532e+08
)
;

boundaryField
{
    sides
    {
        type            zeroGradient;
    }
    empty
    {
        type            empty;
    }
}


// ************************************************************************* //
