/*--------------------------------*- C++ -*----------------------------------*\
| =========                 |                                                 |
| \\      /  F ield         | OpenFOAM: The Open Source CFD Toolbox           |
|  \\    /   O peration     | Version:  2312                                  |
|   \\  /    A nd           | Website:  www.openfoam.com                      |
|    \\/     M anipulation  |                                                 |
\*---------------------------------------------------------------------------*/
FoamFile
{
    version     2.0;
    format      ascii;
    arch        "LSB;label=32;scalar=64";
    class       volScalarField;
    location    "0.0007";
    object      thermo:e;
}
// * * * * * * * * * * * * * * * * * * * * * * * * * * * * * * * * * * * * * //

dimensions      [0 2 -2 0 0 0 0];

internalField   nonuniform List<scalar> 
100
(
4.27028e+10
4.27601e+10
4.28594e+10
4.29884e+10
4.31377e+10
4.33001e+10
4.34699e+10
4.36428e+10
4.38156e+10
4.39858e+10
4.41517e+10
4.4312e+10
4.44658e+10
4.46125e+10
4.47518e+10
4.48835e+10
4.50076e+10
4.51241e+10
4.52333e+10
4.53353e+10
4.54304e+10
4.55188e+10
4.5601e+10
4.56772e+10
4.57477e+10
4.58128e+10
4.58729e+10
4.59282e+10
4.59792e+10
4.60259e+10
4.60688e+10
4.61081e+10
4.6144e+10
4.61769e+10
4.62068e+10
4.62341e+10
4.62589e+10
4.62815e+10
4.6302e+10
4.63205e+10
4.63374e+10
4.63525e+10
4.63663e+10
4.63786e+10
4.63898e+10
4.63998e+10
4.64088e+10
4.64168e+10
4.6424e+10
4.64305e+10
4.64363e+10
4.64414e+10
4.6446e+10
4.64501e+10
4.64537e+10
4.64569e+10
4.64598e+10
4.64623e+10
4.64645e+10
4.64665e+10
4.64682e+10
4.64697e+10
4.6471e+10
4.64722e+10
4.64732e+10
4.64741e+10
4.64749e+10
4.64756e+10
4.64762e+10
4.64767e+10
4.64771e+10
4.64775e+10
4.64778e+10
4.64781e+10
4.64783e+10
4.64785e+10
4.64787e+10
4.64788e+10
4.6479e+10
4.64791e+10
4.64792e+10
4.64792e+10
4.64793e+10
4.64794e+10
4.64794e+10
4.64794e+10
4.64795e+10
4.64795e+10
4.64795e+10
4.64795e+10
4.64795e+10
4.64795e+10
4.64795e+10
4.64796e+10
4.64796e+10
4.64796e+10
4.64796e+10
4.64796e+10
4.64796e+10
4.64796e+10
)
;

boundaryField
{
    sides
    {
        type            zeroGradient;
    }
    empty
    {
        type            empty;
    }
}


// ************************************************************************* //
