/*--------------------------------*- C++ -*----------------------------------*\
| =========                 |                                                 |
| \\      /  F ield         | OpenFOAM: The Open Source CFD Toolbox           |
|  \\    /   O peration     | Version:  2312                                  |
|   \\  /    A nd           | Website:  www.openfoam.com                      |
|    \\/     M anipulation  |                                                 |
\*---------------------------------------------------------------------------*/
FoamFile
{
    version     2.0;
    format      ascii;
    arch        "LSB;label=32;scalar=64";
    class       volScalarField;
    location    "0.018";
    object      p;
}
// * * * * * * * * * * * * * * * * * * * * * * * * * * * * * * * * * * * * * //

dimensions      [1 -1 -2 0 0 0 0];

internalField   nonuniform List<scalar> 
100
(
75206.3
74280.7
73128
72059.8
70958.8
69868.8
68777.2
67690.6
66609
65534.1
64466.5
63406.8
62355.1
61311.8
60276.6
59250
58230.9
57221.8
56216.2
55230.2
54225.8
53286.8
52243.6
51414.4
50252.7
49619.8
48283.9
47839.7
46437.3
45989.5
44752.1
44120
43124.5
42349.2
41492.3
40687.7
39887.6
39105.8
38340.2
37591.7
36861.1
36149.2
35456.9
34785.1
34135.3
33509.2
32908.9
32336.7
31795.2
31287.8
30817.9
30389.3
30006.1
29671.3
29387
29153.2
28968.4
28829.1
28728.8
28659.9
28614.5
28586.7
28571.1
28562
28555.4
28550.3
28548.6
28550.7
28553.4
28552
28547.3
28541.1
28546.4
28546.1
28568.5
28535.9
28581.3
28477.7
28624.6
28421.9
28726
28378.4
28779.5
28355.7
28764
28491.8
28870.1
28910.2
29277.2
29549.6
29846.9
30182
30269.6
30706
30453.7
31373.7
30733.9
32911.1
32128.5
36271.6
)
;

boundaryField
{
    sides
    {
        type            zeroGradient;
    }
    empty
    {
        type            empty;
    }
}


// ************************************************************************* //
