/*--------------------------------*- C++ -*----------------------------------*\
| =========                 |                                                 |
| \\      /  F ield         | OpenFOAM: The Open Source CFD Toolbox           |
|  \\    /   O peration     | Version:  2312                                  |
|   \\  /    A nd           | Website:  www.openfoam.com                      |
|    \\/     M anipulation  |                                                 |
\*---------------------------------------------------------------------------*/
FoamFile
{
    version     2.0;
    format      ascii;
    arch        "LSB;label=32;scalar=64";
    class       volScalarField;
    location    "0.014";
    object      rho;
}
// * * * * * * * * * * * * * * * * * * * * * * * * * * * * * * * * * * * * * //

dimensions      [1 -3 0 0 0 0 0];

internalField   nonuniform List<scalar> 
100
(
1.08751
1.08216
1.07399
1.06441
1.05385
1.04261
1.03082
1.01855
1.00589
0.992889
0.979611
0.96611
0.952435
0.938631
0.924739
0.910794
0.896828
0.882865
0.86893
0.855043
0.841219
0.827474
0.81382
0.800269
0.786827
0.773508
0.760318
0.747239
0.734384
0.721464
0.709111
0.696263
0.684357
0.671998
0.659897
0.648587
0.636388
0.62539
0.613987
0.60304
0.592195
0.581621
0.57132
0.561277
0.551495
0.542015
0.532908
0.524233
0.516025
0.508315
0.501165
0.494685
0.488997
0.484173
0.480219
0.47711
0.474793
0.473135
0.471941
0.471111
0.470711
0.470733
0.470837
0.470529
0.469745
0.469092
0.469277
0.470223
0.4709
0.470257
0.468417
0.46681
0.466968
0.46906
0.471411
0.47164
0.468621
0.463645
0.459758
0.459881
0.465037
0.473416
0.480653
0.48164
0.472596
0.453351
0.425964
0.395415
0.364583
0.337491
0.314321
0.296096
0.282193
0.27147
0.264157
0.258606
0.254984
0.252567
0.251105
0.250237
)
;

boundaryField
{
    sides
    {
        type            zeroGradient;
    }
    empty
    {
        type            empty;
    }
}


// ************************************************************************* //
