/*--------------------------------*- C++ -*----------------------------------*\
| =========                 |                                                 |
| \\      /  F ield         | OpenFOAM: The Open Source CFD Toolbox           |
|  \\    /   O peration     | Version:  2312                                  |
|   \\  /    A nd           | Website:  www.openfoam.com                      |
|    \\/     M anipulation  |                                                 |
\*---------------------------------------------------------------------------*/
FoamFile
{
    version     2.0;
    format      ascii;
    arch        "LSB;label=32;scalar=64";
    class       volScalarField;
    location    "0.014";
    object      T;
}
// * * * * * * * * * * * * * * * * * * * * * * * * * * * * * * * * * * * * * //

dimensions      [0 0 0 1 0 0 0];

internalField   nonuniform List<scalar> 
100
(
294.387
293.011
291.67
290.546
289.376
288.166
286.894
285.563
284.177
282.742
281.262
279.745
278.194
276.614
275.009
273.383
271.739
270.08
268.408
266.725
265.033
263.335
261.629
259.925
258.197
256.527
254.701
253.238
251.001
250.254
246.951
247.544
242.967
244.308
239.952
240.142
237.416
236.22
234.372
232.777
231.152
229.533
227.922
226.339
224.797
223.294
221.82
220.376
218.984
217.673
216.465
215.357
214.344
213.446
212.695
212.102
211.652
211.351
211.218
211.195
211.126
210.937
210.782
210.913
211.329
211.656
211.503
210.948
210.581
210.953
211.955
212.787
212.633
211.465
210.218
210.11
211.681
214.275
216.303
216.191
213.488
209.286
205.79
205.085
209.177
217.921
233.334
250.924
276.385
297.583
327.528
346.661
372.024
386.394
401.167
409.956
416.6
420.53
422.881
424.721
)
;

boundaryField
{
    sides
    {
        type            zeroGradient;
    }
    empty
    {
        type            empty;
    }
}


// ************************************************************************* //
