/*--------------------------------*- C++ -*----------------------------------*\
| =========                 |                                                 |
| \\      /  F ield         | OpenFOAM: The Open Source CFD Toolbox           |
|  \\    /   O peration     | Version:  2312                                  |
|   \\  /    A nd           | Website:  www.openfoam.com                      |
|    \\/     M anipulation  |                                                 |
\*---------------------------------------------------------------------------*/
FoamFile
{
    version     2.0;
    format      ascii;
    arch        "LSB;label=32;scalar=64";
    class       volVectorField;
    location    "0.014";
    object      U;
}
// * * * * * * * * * * * * * * * * * * * * * * * * * * * * * * * * * * * * * //

dimensions      [0 1 -1 0 0 0 0];

internalField   nonuniform List<vector> 
100
(
(16.4313 0 0)
(19.423 0 0)
(22.9244 0 0)
(26.6439 0 0)
(30.5912 0 0)
(34.7044 0 0)
(38.9669 0 0)
(43.3591 0 0)
(47.8676 0 0)
(52.4808 0 0)
(57.1887 0 0)
(61.9831 0 0)
(66.8568 0 0)
(71.8035 0 0)
(76.8173 0 0)
(81.8933 0 0)
(87.0266 0 0)
(92.2127 0 0)
(97.4474 0 0)
(102.727 0 0)
(108.047 0 0)
(113.405 0 0)
(118.795 0 0)
(124.22 0 0)
(129.663 0 0)
(135.155 0 0)
(140.613 0 0)
(146.21 0 0)
(151.6 0 0)
(157.373 0 0)
(162.644 0 0)
(168.503 0 0)
(173.901 0 0)
(179.443 0 0)
(185.299 0 0)
(190.476 0 0)
(196.407 0 0)
(201.748 0 0)
(207.391 0 0)
(212.868 0 0)
(218.371 0 0)
(223.827 0 0)
(229.223 0 0)
(234.549 0 0)
(239.795 0 0)
(244.942 0 0)
(249.962 0 0)
(254.814 0 0)
(259.451 0 0)
(263.832 0 0)
(267.911 0 0)
(271.631 0 0)
(274.924 0 0)
(277.73 0 0)
(280.023 0 0)
(281.809 0 0)
(283.115 0 0)
(284 0 0)
(284.576 0 0)
(284.97 0 0)
(285.236 0 0)
(285.345 0 0)
(285.294 0 0)
(285.206 0 0)
(285.252 0 0)
(285.46 0 0)
(285.645 0 0)
(285.584 0 0)
(285.275 0 0)
(284.993 0 0)
(285.047 0 0)
(285.464 0 0)
(285.917 0 0)
(285.976 0 0)
(285.487 0 0)
(284.733 0 0)
(284.258 0 0)
(284.495 0 0)
(285.445 0 0)
(286.622 0 0)
(287.332 0 0)
(287.051 0 0)
(285.692 0 0)
(283.447 0 0)
(280.896 0 0)
(278.153 0 0)
(276.037 0 0)
(273.726 0 0)
(272.312 0 0)
(270.249 0 0)
(268.67 0 0)
(267.166 0 0)
(265.483 0 0)
(265.259 0 0)
(264.51 0 0)
(264.875 0 0)
(265.069 0 0)
(265.419 0 0)
(265.52 0 0)
(265.553 0 0)
)
;

boundaryField
{
    sides
    {
        type            mywaveTransmissive;
        gamma           1.4;
        value           nonuniform List<vector> 2((265.598 0 0) (15.1683 0 0));
    }
    empty
    {
        type            empty;
    }
}


// ************************************************************************* //
