0.000749886 	1.20191e+07 	0.00140022 	55.9307 	-1.62984e-09 	1.90733e-09
0.0016069 	1.2027e+07 	0.00140303 	96.1154 	-2.54739e-09 	2.76796e-09
0.0025654 	1.20317e+07 	0.00140771 	153.14 	-3.84837e-09 	4.08493e-09
0.00354676 	1.20364e+07 	0.00141502 	199.668 	-5.46184e-09 	5.85996e-09
0.0045362 	1.20382e+07 	0.00142532 	254.277 	-4.51626e-09 	4.80158e-09
0.00552938 	1.20367e+07 	0.00143926 	320.155 	-5.57519e-09 	5.77402e-09
0.0065246 	1.20348e+07 	0.00145782 	384.524 	-6.16413e-09 	6.33529e-09
0.00752105 	1.20359e+07 	0.00148214 	432.015 	-7.30187e-09 	7.38767e-09
0.00851829 	1.20372e+07 	0.0015129 	487.202 	-7.05024e-09 	7.10027e-09
0.00951608 	1.20378e+07 	0.00155114 	553.145 	-5.93164e-09 	5.95699e-09
0.0105143 	1.20383e+07 	0.00159819 	624.238 	-5.34534e-09 	5.35327e-09
0.0115127 	1.20402e+07 	0.00165576 	690.117 	-4.71275e-09 	4.71276e-09
0.0125114 	1.20422e+07 	0.0017256 	759.717 	-4.27069e-09 	4.27068e-09
0.0135103 	1.20444e+07 	0.00181012 	832.366 	-3.73301e-09 	3.73301e-09
0.0145093 	1.20468e+07 	0.00191225 	910.519 	-3.03974e-09 	3.03979e-09
0.0155084 	1.20505e+07 	0.0020359 	990.688 	-2.30763e-09 	2.30764e-09
0.0165076 	1.20547e+07 	0.00218585 	1076.92 	-1.59242e-09 	1.59242e-09
0.0175069 	1.20692e+07 	0.00236843 	1120.89 	-1.15283e-09 	1.15282e-09
0.0185062 	1.20775e+07 	0.0025807 	1100.77 	1.02093e-10 	-1.02107e-10
0.0195056 	1.20756e+07 	0.0028179 	1152.21 	3.57644e-11 	-3.57776e-11
0.020505 	1.20803e+07 	0.0030845 	1198.66 	4.93462e-12 	-4.93363e-12
0.0215045 	1.20836e+07 	0.00338309 	1254.6 	4.72423e-12 	-4.72047e-12
0.022504 	1.2088e+07 	0.00371842 	1309.57 	-3.11055e-11 	3.11147e-11
0.0235035 	1.20923e+07 	0.0040955 	1365.56 	-1.38032e-10 	1.3804e-10
0.0245031 	1.20969e+07 	0.00452045 	1421.15 	-1.79258e-10 	1.79252e-10
0.0255027 	1.21017e+07 	0.00500021 	1476.76 	-1.59949e-10 	1.59945e-10
0.0265023 	1.21068e+07 	0.00554291 	1532.31 	-1.76337e-10 	1.76334e-10
0.0275019 	1.2112e+07 	0.00615794 	1587.89 	-2.59446e-10 	2.59444e-10
0.0285015 	1.21176e+07 	0.0068562 	1643.47 	-2.23932e-10 	2.23931e-10
0.0295012 	1.21235e+07 	0.00765036 	1699.09 	-2.08711e-10 	2.0871e-10
0.0305008 	1.21297e+07 	0.00855515 	1754.76 	-2.18775e-10 	2.18772e-10
0.0315005 	1.21363e+07 	0.00958774 	1810.53 	-2.5119e-10 	2.51187e-10
0.0325002 	1.21434e+07 	0.0107681 	1866.41 	-2.30116e-10 	2.30116e-10
0.0334999 	1.2151e+07 	0.0121196 	1922.4 	-2.03191e-10 	2.03191e-10
0.0344996 	1.21593e+07 	0.0136693 	1978.5 	-1.74559e-10 	1.74559e-10
0.0354993 	1.21682e+07 	0.015449 	2034.71 	-1.32899e-10 	1.32899e-10
0.036499 	1.21779e+07 	0.0174957 	2091.05 	-9.90947e-11 	9.90947e-11
0.0374987 	1.21885e+07 	0.0198524 	2147.52 	-6.45136e-11 	6.45136e-11
0.0384985 	1.22002e+07 	0.0225695 	2204.14 	-4.77258e-11 	4.77258e-11
0.0394982 	1.2213e+07 	0.0257054 	2260.94 	-5.2596e-11 	5.2596e-11
0.040498 	1.22274e+07 	0.0293284 	2317.94 	-5.13374e-11 	5.13374e-11
0.0414977 	1.22434e+07 	0.0335175 	2375.17 	-3.53399e-11 	3.53399e-11
0.0424975 	1.22614e+07 	0.0383649 	2432.65 	-2.22803e-11 	2.22803e-11
0.0434972 	1.22817e+07 	0.0439771 	2490.41 	-1.85132e-11 	1.85132e-11
0.044497 	1.23047e+07 	0.0504778 	2548.49 	-1.04246e-11 	1.04246e-11
0.0454967 	1.23309e+07 	0.0580102 	2606.92 	-1.6753e-11 	1.6753e-11
0.0464965 	1.23609e+07 	0.0667401 	2665.75 	-1.59008e-11 	1.59008e-11
0.0474963 	1.23954e+07 	0.0768598 	2725.05 	-1.62988e-11 	1.62988e-11
0.0484961 	1.24353e+07 	0.0885925 	2784.89 	-1.03519e-11 	1.03519e-11
0.0494958 	1.24815e+07 	0.102198 	2845.34 	-7.63785e-12 	7.63785e-12
0.0504956 	1.25353e+07 	0.117979 	2906.49 	-5.45224e-12 	5.45224e-12
0.0514954 	1.2598e+07 	0.136291 	2968.42 	-5.31449e-12 	5.31449e-12
0.0524952 	1.26715e+07 	0.157552 	3031.24 	-3.34019e-12 	3.34019e-12
0.053495 	1.27579e+07 	0.182255 	3095.09 	-1.6748e-12 	1.6748e-12
0.0544948 	1.28595e+07 	0.210988 	3160.15 	-1.22961e-12 	1.22961e-12
0.0554946 	1.29795e+07 	0.244453 	3226.64 	-6.82691e-13 	6.82691e-13
0.0564944 	1.31217e+07 	0.283497 	3294.81 	-3.47453e-13 	3.47453e-13
0.0574942 	1.32906e+07 	0.329147 	3364.97 	-9.41164e-14 	9.41164e-14
0.058494 	1.34922e+07 	0.382667 	3437.55 	-2.34781e-13 	2.34781e-13
0.0594938 	1.37338e+07 	0.445633 	3513.12 	1.15478e-12 	-1.15478e-12
0.0604936 	1.4025e+07 	0.52005 	3592.42 	7.32798e-13 	-7.32798e-13
0.0614934 	1.43786e+07 	0.60855 	3676.36 	7.64487e-13 	-7.64487e-13
0.0624932 	1.48132e+07 	0.714684 	3766.34 	7.5426e-13 	-7.5426e-13
0.063493 	1.53567e+07 	0.843438 	3864.81 	4.61316e-13 	-4.61316e-13
0.0644928 	1.60553e+07 	1.00226 	3976 	2.21227e-13 	-2.21227e-13
0.0654926 	1.69847e+07 	1.20303 	4106.12 	5.78971e-14 	-5.78971e-14
0.0664924 	1.82653e+07 	1.46552 	4262.28 	1.142e-14 	-1.142e-14
0.0674922 	2.00618e+07 	1.8218 	4444.72 	3.55199e-13 	-3.55199e-13
0.068492 	2.24846e+07 	2.31747 	4641.72 	2.13114e-13 	-2.13114e-13
0.0694918 	2.55177e+07 	3.00679 	4826.23 	9.11995e-14 	-9.11995e-14
0.0704916 	2.89136e+07 	3.93447 	4976.51 	4.71168e-14 	-4.71168e-14
0.0714915 	2.87132e+07 	4.61286 	4856.82 	3.14461e-14 	-3.14461e-14
0.0724913 	2.40265e+07 	4.74886 	4471.29 	2.19802e-14 	-2.19802e-14
0.0734911 	1.0956e+07 	3.23483 	2964.71 	1.56195e-14 	-1.56195e-14
0.0744909 	1.02292e+06 	1.49787 	611.939 	2.10991e-15 	-2.10991e-15
0.0754907 	109188 	1.17755 	16.3363 	2.02572e-14 	-2.02572e-14
0.0764906 	100045 	1.16125 	0.110535 	0 	0
0.0774904 	100000 	1.16103 	0.000613405 	0 	0
0.0784902 	100000 	1.16103 	3.40235e-06 	0 	0
0.07949 	100000 	1.16103 	1.87224e-08 	0 	0
0.0804898 	100000 	1.16103 	1.06522e-10 	0 	0
0.0814897 	100000 	1.16103 	7.42324e-12 	0 	0
0.0824895 	100000 	1.16103 	-1.76789e-12 	8.82718e-15 	-8.82718e-15
0.0834893 	100000 	1.16103 	-1.33953e-11 	0 	0
0.0844891 	100000 	1.16103 	-2.81129e-12 	0 	4.09548e-17
0.085489 	100000 	1.16103 	1.23682e-11 	-8.12217e-15 	8.14262e-15
0.0864888 	100000 	1.16103 	3.74535e-12 	-7.76471e-16 	7.76918e-16
0.0874886 	100000 	1.16103 	-3.67056e-12 	-1.0046e-14 	1.00462e-14
0.0884884 	100000 	1.16103 	-8.07936e-12 	0 	0
0.0894883 	100000 	1.16103 	-4.20067e-12 	0 	0
0.0904881 	100000 	1.16103 	6.82847e-12 	-1.32494e-14 	1.32334e-14
0.0914879 	100000 	1.16103 	8.34353e-12 	0 	-3.49282e-17
0.0924877 	100000 	1.16103 	-1.29545e-12 	0 	3.41771e-17
0.0934876 	100000 	1.16103 	-1.40421e-12 	-8.78017e-15 	8.83582e-15
0.0944874 	100000 	1.16103 	4.33623e-12 	0 	3.27458e-17
0.0954872 	100000 	1.16103 	-4.02884e-12 	0 	-3.20636e-17
0.0964871 	100000 	1.16103 	-4.88706e-12 	0 	-3.14025e-17
0.0974869 	100000 	1.16103 	-2.47071e-12 	0 	0
0.0984867 	100000 	1.16103 	2.68191e-12 	0 	0
0.0994866 	100000 	1.16103 	1.03665e-11 	7.65215e-15 	-7.65215e-15
0.100486 	100000 	1.16103 	-4.72691e-12 	0 	0
0.101486 	100000 	1.16103 	-4.35619e-12 	0 	0
0.102486 	100000 	1.16103 	-4.86295e-13 	0 	0
0.103486 	100000 	1.16103 	-1.95206e-12 	0 	2.72985e-17
0.104486 	100000 	1.16103 	6.55019e-12 	0 	-2.67786e-17
0.105486 	100000 	1.16103 	-4.76308e-12 	7.48176e-15 	-7.46837e-15
0.106485 	100000 	1.16103 	-7.40597e-12 	-2.94268e-15 	2.90445e-15
0.107485 	100000 	1.16103 	-6.17025e-12 	7.25076e-15 	-7.27994e-15
0.108485 	100000 	1.16103 	-3.98841e-13 	0 	2.48405e-17
0.109485 	100000 	1.16103 	1.3087e-11 	0 	0
0.110485 	100000 	1.16103 	2.35864e-12 	1.17218e-15 	-1.17218e-15
0.111485 	100000 	1.16103 	-7.18775e-12 	1.14955e-14 	-1.14955e-14
0.112484 	100000 	1.16103 	-3.49175e-12 	2.52635e-15 	-2.5294e-15
0.113484 	100000 	1.16103 	2.67749e-12 	3.66485e-15 	-3.67087e-15
0.114484 	100000 	1.16103 	9.02932e-13 	1.8621e-14 	-1.86301e-14
0.115484 	100000 	1.16103 	-8.73116e-12 	1.64347e-14 	-1.64576e-14
0.116484 	100000 	1.16103 	-1.25387e-12 	4.23598e-15 	-4.24472e-15
0.117484 	100000 	1.16103 	8.00262e-12 	0 	-2.11809e-17
0.118483 	100000 	1.16103 	8.8199e-12 	-3.5021e-16 	3.70705e-16
0.119483 	100000 	1.16103 	6.77787e-12 	-1.42597e-14 	1.4263e-14
0.120483 	100000 	1.16103 	-1.35502e-12 	0 	0
0.121483 	100000 	1.16103 	-1.26886e-11 	1.14562e-14 	-1.14562e-14
0.122483 	100000 	1.16103 	1.44824e-11 	0 	0
0.123483 	100000 	1.16103 	1.24478e-11 	0 	0
0.124482 	100000 	1.16103 	-1.50692e-11 	0 	0
0.125482 	100000 	1.16103 	-8.18235e-12 	0 	0
0.126482 	100000 	1.16103 	-6.23165e-12 	0 	0
0.127482 	100000 	1.16103 	-3.09102e-12 	0 	0
0.128482 	100000 	1.16103 	-5.59092e-12 	0 	0
0.129482 	100000 	1.16103 	-3.83183e-12 	0 	0
0.130481 	100000 	1.16103 	3.53277e-12 	0 	0
0.131481 	100000 	1.16103 	5.31528e-12 	0 	0
0.132481 	100000 	1.16103 	8.65469e-12 	0 	0
0.133481 	100000 	1.16103 	3.38684e-12 	-2.04766e-15 	2.04766e-15
0.134481 	100000 	1.16103 	4.53591e-12 	-1.03587e-14 	1.03587e-14
0.135481 	100000 	1.16103 	-1.35429e-12 	-1.04872e-14 	1.04872e-14
0.13648 	100000 	1.16103 	5.14024e-12 	7.4002e-15 	-7.4002e-15
0.13748 	100000 	1.16103 	8.96941e-12 	0 	0
0.13848 	100000 	1.16103 	-6.98734e-12 	0 	0
0.13948 	100000 	1.16103 	9.61775e-13 	0 	0
0.14048 	100000 	1.16103 	-4.08056e-12 	0 	0
0.14148 	100000 	1.16103 	-1.07145e-11 	-6.57662e-16 	6.57662e-16
0.14248 	100000 	1.16103 	3.98438e-12 	-6.85759e-15 	6.85759e-15
0.143479 	100000 	1.16103 	5.57134e-12 	0 	0
0.144479 	100000 	1.16103 	-5.67236e-12 	0 	0
0.145479 	100000 	1.16103 	2.78009e-12 	0 	0
0.146479 	100000 	1.16103 	-2.96395e-12 	0 	0
0.147479 	100000 	1.16103 	-6.41993e-12 	0 	0
0.148479 	100000 	1.16103 	6.59915e-12 	0 	0
0.149478 	100000 	1.16103 	6.33596e-12 	5.30842e-15 	-5.30842e-15
0.150478 	100000 	1.16103 	-3.89283e-12 	0 	0
0.151478 	100000 	1.16103 	-1.86814e-11 	-4.9237e-15 	4.9237e-15
0.152478 	100000 	1.16103 	-3.73798e-12 	0 	0
0.153478 	100000 	1.16103 	5.38631e-12 	3.21816e-15 	-3.21816e-15
0.154478 	100000 	1.16103 	5.01023e-12 	-3.13571e-15 	3.13571e-15
0.155477 	100000 	1.16103 	1.95844e-11 	0 	0
0.156477 	100000 	1.16103 	9.75218e-12 	0 	0
0.157477 	100000 	1.16103 	-6.392e-12 	-5.66648e-15 	5.66664e-15
0.158477 	100000 	1.16103 	-6.18751e-12 	1.45746e-15 	-1.45461e-15
0.159477 	100000 	1.16103 	-6.28919e-12 	-1.0982e-14 	1.09935e-14
0.160477 	100000 	1.16103 	5.38602e-12 	-9.84519e-15 	9.85092e-15
0.161476 	100000 	1.16103 	-1.23979e-11 	0 	0
0.162476 	100000 	1.16103 	-1.00737e-11 	8.90458e-15 	-8.90458e-15
0.163476 	100000 	1.16103 	8.65034e-12 	-1.38121e-14 	1.38121e-14
0.164476 	100000 	1.16103 	8.95101e-13 	-1.5887e-15 	1.5887e-15
0.165476 	100000 	1.16103 	8.8512e-12 	0 	0
0.166476 	100000 	1.16103 	3.19522e-12 	0 	0
0.167476 	100000 	1.16103 	-7.24448e-12 	5.38497e-15 	-5.38497e-15
0.168475 	100000 	1.16103 	5.9869e-12 	0 	0
0.169475 	100000 	1.16103 	-2.02423e-13 	0 	0
0.170475 	100000 	1.16103 	-8.22624e-12 	0 	0
0.171475 	100000 	1.16103 	1.91914e-12 	-4.31831e-15 	4.31584e-15
0.172475 	100000 	1.16103 	-2.00163e-12 	0 	-9.82752e-18
0.173475 	100000 	1.16103 	-5.88734e-13 	-1.63336e-17 	1.2544e-17
0.174474 	100000 	1.16103 	-4.68884e-12 	-7.44151e-15 	7.43898e-15
0.175474 	100000 	1.16103 	2.34779e-12 	-7.40171e-15 	7.40044e-15
0.176474 	100000 	1.16103 	1.17219e-11 	-6.56659e-17 	6.56659e-17
0.177474 	100000 	1.16103 	-4.09169e-12 	0 	0
0.178474 	100000 	1.16103 	-1.15656e-11 	-2.28284e-15 	2.28284e-15
0.179474 	100000 	1.16103 	9.52051e-12 	5.78966e-15 	-5.78966e-15
0.180473 	100000 	1.16103 	1.21392e-11 	6.79673e-15 	-6.79673e-15
0.181473 	100000 	1.16103 	-5.6574e-12 	0 	0
0.182473 	100000 	1.16103 	1.19126e-12 	0 	0
0.183473 	100000 	1.16103 	6.10423e-12 	0 	0
0.184473 	100000 	1.16103 	-6.4694e-12 	0 	0
0.185473 	100000 	1.16103 	-6.87179e-12 	0 	0
0.186473 	100000 	1.16103 	1.57169e-13 	0 	0
0.187472 	100000 	1.16103 	-3.71646e-12 	0 	0
0.188472 	100000 	1.16103 	-1.34671e-11 	0 	0
0.189472 	100000 	1.16103 	7.74737e-12 	0 	0
0.190472 	100000 	1.16103 	1.42629e-11 	3.11407e-15 	-3.11407e-15
0.191472 	100000 	1.16103 	-4.29663e-12 	0 	0
0.192472 	100000 	1.16103 	-8.158e-12 	0 	0
0.193471 	100000 	1.16103 	-5.42086e-12 	-3.86981e-15 	3.86981e-15
0.194471 	100000 	1.16103 	2.81341e-12 	2.6914e-15 	-2.6914e-15
0.195471 	100000 	1.16103 	8.93251e-12 	0 	0
0.196471 	100000 	1.16103 	-5.21562e-13 	-3.91124e-15 	3.91124e-15
0.197471 	100000 	1.16103 	6.54512e-12 	0 	0
0.198471 	100000 	1.16103 	1.03007e-11 	7.42314e-16 	-7.39171e-16
0.199471 	100000 	1.16103 	8.83562e-13 	6.93743e-15 	-6.93226e-15
0.20047 	100000 	1.16103 	-1.026e-11 	7.44137e-15 	-7.4341e-15
0.20147 	100000 	1.16103 	-1.04851e-11 	0 	0
0.20247 	100000 	1.16103 	3.20067e-12 	0 	0
0.20347 	100000 	1.16103 	7.55006e-12 	-5.09718e-16 	5.09718e-16
0.20447 	100000 	1.16103 	-2.81195e-12 	-6.44556e-15 	6.44556e-15
0.20547 	100000 	1.16103 	-6.92968e-12 	-7.04586e-15 	7.04586e-15
0.206469 	100000 	1.16103 	7.83409e-12 	3.42649e-15 	-3.42649e-15
0.207469 	100000 	1.16103 	1.05504e-11 	-1.11297e-15 	1.11297e-15
0.208469 	100000 	1.16103 	9.78892e-13 	2.04577e-15 	-2.04577e-15
0.209469 	100000 	1.16103 	-1.23385e-11 	0 	0
0.210469 	100000 	1.16103 	-4.53614e-12 	0 	0
0.211469 	100000 	1.16103 	-2.03885e-12 	0 	0
0.212468 	100000 	1.16103 	9.02586e-13 	-5.63757e-15 	5.63757e-15
0.213468 	100000 	1.16103 	6.10911e-12 	-3.45244e-15 	3.45244e-15
0.214468 	100000 	1.16103 	3.59948e-12 	-6.57731e-15 	6.57731e-15
0.215468 	100000 	1.16103 	2.67361e-12 	-8.4017e-15 	8.4017e-15
0.216468 	100000 	1.16103 	-9.24208e-12 	-1.77044e-15 	1.77044e-15
0.217468 	100000 	1.16103 	-7.37241e-12 	0 	0
0.218468 	100000 	1.16103 	7.58245e-12 	0 	0
0.219467 	100000 	1.16103 	8.51454e-12 	0 	0
0.220467 	100000 	1.16103 	-3.70812e-12 	0 	0
0.221467 	100000 	1.16103 	-1.18636e-11 	0 	0
0.222467 	100000 	1.16103 	-2.27547e-12 	0 	0
0.223467 	100000 	1.16103 	-8.10033e-14 	1.75529e-15 	-1.75529e-15
0.224467 	100000 	1.16103 	8.59897e-12 	7.6652e-15 	-7.6652e-15
0.225466 	100000 	1.16103 	9.35248e-12 	7.17929e-16 	-7.17929e-16
0.226466 	100000 	1.16103 	-1.0688e-11 	0 	0
0.227466 	100000 	1.16103 	1.17449e-11 	-6.25034e-15 	6.25034e-15
0.228466 	100000 	1.16103 	1.84728e-12 	-1.96653e-15 	1.96653e-15
0.229466 	100000 	1.16103 	-9.72228e-12 	-2.03007e-15 	2.03007e-15
0.230466 	100000 	1.16103 	1.20522e-12 	-6.36571e-15 	6.36571e-15
0.231466 	100000 	1.16103 	2.99149e-12 	-9.97049e-16 	9.97049e-16
0.232465 	100000 	1.16103 	1.56458e-12 	0 	0
0.233465 	100000 	1.16103 	4.04509e-12 	0 	0
0.234465 	100000 	1.16103 	-6.30355e-12 	0 	0
0.235465 	100000 	1.16103 	-1.15722e-11 	0 	0
0.236465 	100000 	1.16103 	3.20288e-12 	0 	0
0.237465 	100000 	1.16103 	8.95508e-12 	0 	0
0.238464 	100000 	1.16103 	3.81662e-12 	0 	0
0.239464 	100000 	1.16103 	-3.01471e-13 	0 	0
0.240464 	100000 	1.16103 	-6.22373e-12 	-5.73474e-15 	5.73474e-15
0.241464 	100000 	1.16103 	1.05178e-11 	-1.55405e-15 	1.55405e-15
0.242464 	100000 	1.16103 	-1.2087e-11 	-4.29305e-15 	4.29305e-15
0.243464 	100000 	1.16103 	-1.4587e-11 	4.9293e-15 	-4.9293e-15
0.244464 	100000 	1.16103 	9.18222e-12 	8.47113e-15 	-8.47113e-15
0.245463 	100000 	1.16103 	-9.54354e-13 	5.25551e-15 	-5.25551e-15
0.246463 	100000 	1.16103 	-8.29937e-12 	-2.96366e-15 	2.96366e-15
0.247463 	100000 	1.16103 	1.21552e-12 	6.58047e-19 	-6.58047e-19
0.248463 	100000 	1.16103 	1.21748e-11 	5.23464e-15 	-5.23464e-15
0.249463 	100000 	1.16103 	8.80762e-12 	-5.09215e-15 	5.09215e-15
0.250463 	100000 	1.16103 	-1.97096e-12 	0 	0
0.251462 	100000 	1.16103 	1.67695e-12 	0 	0
0.252462 	100000 	1.16103 	-1.31757e-11 	0 	0
0.253462 	100000 	1.16103 	-1.25742e-11 	0 	0
0.254462 	100000 	1.16103 	1.52414e-12 	0 	0
0.255462 	100000 	1.16103 	5.05493e-12 	0 	0
0.256462 	100000 	1.16103 	5.61893e-12 	-6.65394e-16 	6.65394e-16
0.257462 	100000 	1.16103 	1.2475e-11 	-4.26244e-15 	4.26244e-15
0.258461 	100000 	1.16103 	-7.38688e-12 	0 	0
0.259461 	100000 	1.16103 	-2.64751e-12 	0 	0
0.260461 	100000 	1.16103 	7.12837e-12 	0 	0
0.261461 	100000 	1.16103 	4.07031e-12 	0 	0
0.262461 	100000 	1.16103 	1.32175e-11 	0 	0
0.263461 	100000 	1.16103 	-1.33256e-11 	6.39003e-16 	-6.39003e-16
0.26446 	100000 	1.16103 	-9.35391e-12 	5.65544e-15 	-5.65544e-15
0.26546 	100000 	1.16103 	-4.45579e-12 	8.95329e-16 	-8.95329e-16
0.26646 	100000 	1.16103 	6.81028e-13 	4.28139e-15 	-4.28139e-15
0.26746 	100000 	1.16103 	1.29536e-12 	5.65076e-16 	-5.65076e-16
0.26846 	100000 	1.16103 	-1.72895e-12 	0 	0
0.26946 	100000 	1.16103 	-3.673e-12 	0 	0
0.27046 	100000 	1.16103 	4.31378e-12 	0 	0
0.271459 	100000 	1.16103 	1.33075e-11 	0 	0
0.272459 	100000 	1.16103 	5.69047e-12 	0 	0
0.273459 	100000 	1.16103 	-7.48373e-12 	0 	0
0.274459 	100000 	1.16103 	7.74544e-12 	-6.88751e-16 	6.88751e-16
0.275459 	100000 	1.16103 	3.45809e-14 	-4.01977e-15 	4.01977e-15
0.276459 	100000 	1.16103 	-7.15379e-13 	-5.24441e-16 	5.24441e-16
0.277458 	100000 	1.16103 	-1.44728e-13 	0 	0
0.278458 	100000 	1.16103 	-8.33434e-12 	0 	0
0.279458 	100000 	1.16103 	-4.81435e-12 	0 	0
0.280458 	100000 	1.16103 	-1.11236e-11 	0 	0
0.281458 	100000 	1.16103 	-4.24503e-12 	3.40922e-16 	-3.40922e-16
0.282458 	100000 	1.16103 	1.26252e-11 	3.52158e-15 	-3.52158e-15
0.283457 	100000 	1.16103 	-4.07242e-12 	0 	0
0.284457 	100000 	1.16103 	-9.70059e-13 	-4.21106e-15 	4.21106e-15
0.285457 	100000 	1.16103 	3.45357e-12 	-3.71009e-16 	3.71009e-16
0.286457 	100000 	1.16103 	-4.88995e-12 	0 	0
0.287457 	100000 	1.16103 	1.20611e-12 	0 	0
0.288457 	100000 	1.16103 	3.48411e-12 	-2.71558e-15 	2.71558e-15
0.289457 	100000 	1.16103 	9.15351e-13 	0 	0
0.290456 	100000 	1.16103 	4.24571e-12 	0 	0
0.291456 	100000 	1.16103 	-1.57609e-12 	2.67422e-15 	-2.67422e-15
0.292456 	100000 	1.16103 	-1.70584e-12 	-2.6514e-15 	2.6514e-15
0.293456 	100000 	1.16103 	-1.48956e-11 	0 	0
0.294456 	100000 	1.16103 	1.50324e-11 	0 	0
0.295456 	100000 	1.16103 	1.61611e-11 	1.38221e-15 	-1.38221e-15
0.296455 	100000 	1.16103 	-3.68419e-12 	-2.55957e-15 	2.55957e-15
0.297455 	100000 	1.16103 	1.99324e-12 	0 	0
0.298455 	100000 	1.16103 	-6.82618e-12 	0 	0
0.299455 	100000 	1.16103 	-5.44848e-12 	0 	0
0.300455 	100000 	1.16103 	2.63714e-12 	-3.62427e-15 	3.62427e-15
0.301455 	100000 	1.16103 	5.74014e-12 	1.24573e-15 	-1.24573e-15
0.302455 	100000 	1.16103 	4.79377e-12 	-2.70857e-15 	2.70857e-15
0.303454 	100000 	1.16103 	-7.71215e-12 	0 	0
0.304454 	100000 	1.16103 	-1.40654e-11 	2.61012e-15 	-2.61012e-15
0.305454 	100000 	1.16103 	-7.04579e-12 	0 	0
0.306454 	100000 	1.16103 	9.57458e-12 	0 	0
0.307454 	100000 	1.16103 	1.13254e-11 	0 	0
0.308454 	100000 	1.16103 	2.49922e-12 	-4.74973e-15 	4.74973e-15
0.309453 	100000 	1.16103 	-7.66294e-12 	-4.73435e-15 	4.73435e-15
0.310453 	100000 	1.16103 	1.23355e-12 	-1.52302e-17 	1.52302e-17
0.311453 	100000 	1.16103 	2.42978e-12 	0 	0
0.312453 	100000 	1.16103 	2.21321e-12 	0 	0
0.313453 	100000 	1.16103 	3.49547e-12 	0 	0
0.314453 	100000 	1.16103 	-1.40474e-11 	3.57183e-15 	-3.57183e-15
0.315453 	100000 	1.16103 	-8.4485e-12 	0 	0
0.316452 	100000 	1.16103 	8.39188e-12 	0 	0
0.317452 	100000 	1.16103 	7.87911e-12 	0 	0
0.318452 	100000 	1.16103 	4.73123e-13 	0 	0
0.319452 	100000 	1.16103 	-4.94041e-12 	-5.89881e-15 	5.89881e-15
0.320452 	100000 	1.16103 	-7.96211e-12 	-5.87961e-15 	5.87961e-15
0.321452 	100000 	1.16103 	4.79486e-12 	-5.82435e-15 	5.82435e-15
0.322451 	100000 	1.16103 	1.35605e-11 	-3.59405e-15 	3.59405e-15
0.323451 	100000 	1.16103 	-8.41658e-12 	-5.71041e-15 	5.71041e-15
0.324451 	100000 	1.16103 	-1.14486e-11 	-5.52669e-15 	5.52669e-15
0.325451 	100000 	1.16103 	8.41722e-12 	-4.09474e-16 	4.09474e-16
0.326451 	100000 	1.16103 	7.14611e-12 	0 	0
0.327451 	100000 	1.16103 	-6.93953e-12 	0 	0
0.328451 	100000 	1.16103 	2.22758e-12 	3.37788e-15 	-3.37788e-15
0.32945 	100000 	1.16103 	-4.20876e-12 	0 	0
0.33045 	100000 	1.16103 	7.29707e-12 	0 	0
0.33145 	100000 	1.16103 	5.02419e-12 	0 	0
0.33245 	100000 	1.16103 	-1.1012e-11 	-2.95471e-17 	2.95471e-17
0.33345 	100000 	1.16103 	-8.0617e-12 	-4.85988e-15 	4.85988e-15
0.33445 	100000 	1.16103 	6.70538e-12 	-4.74252e-15 	4.74252e-15
0.33545 	100000 	1.16103 	9.96217e-12 	-4.37127e-16 	4.37127e-16
0.336449 	100000 	1.16103 	-1.024e-11 	0 	0
0.337449 	100000 	1.16103 	-1.20119e-11 	0 	0
0.338449 	100000 	1.16103 	4.48879e-12 	0 	0
0.339449 	100000 	1.16103 	3.75426e-12 	0 	0
0.340449 	100000 	1.16103 	3.80353e-12 	0 	0
0.341449 	100000 	1.16103 	2.74281e-12 	-2.49296e-15 	2.49296e-15
0.342448 	100000 	1.16103 	-1.22001e-11 	0 	0
0.343448 	100000 	1.16103 	-3.20682e-12 	0 	0
0.344448 	100000 	1.16103 	9.36942e-12 	1.90447e-15 	-1.90447e-15
0.345448 	100000 	1.16103 	2.8496e-12 	0 	0
0.346448 	100000 	1.16103 	4.09946e-12 	2.59617e-15 	-2.59617e-15
0.347448 	100000 	1.16103 	1.08395e-11 	0 	0
0.348448 	100000 	1.16103 	-6.81432e-12 	-3.72563e-15 	3.72563e-15
0.349447 	100000 	1.16103 	-5.89559e-12 	-2.06328e-15 	2.06328e-15
0.350447 	100000 	1.16103 	-6.77398e-12 	-4.92617e-15 	4.92617e-15
0.351447 	100000 	1.16103 	-1.55034e-12 	-4.23544e-15 	4.23544e-15
0.352447 	100000 	1.16103 	4.79166e-12 	9.97532e-17 	-9.97532e-17
0.353447 	100000 	1.16103 	3.12961e-12 	0 	0
0.354447 	100000 	1.16103 	1.23683e-13 	0 	0
0.355446 	100000 	1.16103 	-8.69629e-12 	1.78843e-15 	-1.78843e-15
0.356446 	100000 	1.16103 	4.60375e-12 	0 	0
0.357446 	100000 	1.16103 	1.61271e-11 	-4.0457e-15 	4.0457e-15
0.358446 	100000 	1.16103 	2.15223e-12 	-4.54175e-15 	4.54175e-15
0.359446 	100000 	1.16103 	-2.43252e-12 	-3.7893e-16 	3.7893e-16
0.360446 	100000 	1.16103 	5.25714e-12 	-3.43496e-15 	3.43496e-15
0.361446 	100000 	1.16103 	-6.61216e-12 	0 	0
0.362445 	100000 	1.16103 	-1.1898e-11 	0 	0
0.363445 	100000 	1.16103 	1.50258e-12 	-1.7106e-15 	1.7106e-15
0.364445 	100000 	1.16103 	7.08932e-12 	-3.08745e-20 	3.08745e-20
0.365445 	100000 	1.16103 	5.73107e-13 	-1.69194e-15 	1.69194e-15
0.366445 	100000 	1.16103 	-9.12991e-12 	0 	0
0.367445 	100000 	1.16103 	1.2641e-12 	2.23882e-15 	-2.23882e-15
0.368444 	100000 	1.16103 	8.85461e-13 	0 	0
0.369444 	100000 	1.16103 	2.27483e-12 	0 	0
0.370444 	100000 	1.16103 	1.18126e-11 	9.42563e-16 	-9.42563e-16
0.371444 	100000 	1.16103 	-5.67966e-12 	-1.91567e-15 	1.91567e-15
0.372444 	100000 	1.16103 	-1.06374e-11 	-1.4921e-15 	1.4921e-15
0.373444 	100000 	1.16103 	-1.61912e-12 	-4.3199e-15 	4.3199e-15
0.374444 	100000 	1.16103 	4.7286e-12 	-4.314e-15 	4.314e-15
0.375443 	100000 	1.16103 	-6.40703e-12 	-4.22033e-15 	4.22033e-15
0.376443 	100000 	1.16103 	8.46558e-12 	-1.32849e-17 	1.32849e-17
0.377443 	100000 	1.16103 	2.88403e-12 	0 	0
0.378443 	100000 	1.16103 	-1.41907e-11 	0 	0
0.379443 	100000 	1.16103 	-2.81933e-12 	2.11874e-15 	-2.11874e-15
0.380443 	100000 	1.16103 	8.70699e-13 	0 	0
0.381442 	100000 	1.16103 	8.71216e-12 	2.71856e-15 	-2.71856e-15
0.382442 	100000 	1.16103 	1.42151e-11 	0 	0
0.383442 	100000 	1.16103 	7.19576e-12 	0 	0
0.384442 	100000 	1.16103 	-1.54138e-12 	-2.03609e-15 	2.03609e-15
0.385442 	100000 	1.16103 	-1.52146e-11 	0 	0
0.386442 	100000 	1.16103 	-9.79746e-12 	0 	0
0.387442 	100000 	1.16103 	-1.23886e-12 	0 	0
0.388441 	100000 	1.16103 	-4.14559e-12 	4.00765e-15 	-4.00765e-15
0.389441 	100000 	1.16103 	6.88807e-12 	3.8692e-15 	-3.8692e-15
0.390441 	100000 	1.16103 	5.54242e-12 	3.15555e-16 	-3.15555e-16
0.391441 	100000 	1.16103 	5.02565e-12 	0 	0
0.392441 	100000 	1.16103 	1.48194e-12 	0 	0
0.393441 	100000 	1.16103 	-3.86331e-12 	1.52073e-15 	-1.52073e-15
0.39444 	100000 	1.16103 	-5.15282e-13 	0 	0
0.39544 	100000 	1.16103 	5.11505e-12 	0 	0
0.39644 	100000 	1.16103 	9.03675e-12 	0 	0
0.39744 	100000 	1.16103 	5.38827e-12 	0 	0
0.39844 	100000 	1.16103 	-1.07649e-11 	0 	0
0.39944 	100000 	1.16103 	-1.12502e-11 	0 	0
0.40044 	100000 	1.16103 	1.44208e-12 	0 	0
0.401439 	100000 	1.16103 	-5.25872e-12 	0 	0
0.402439 	100000 	1.16103 	-9.40139e-12 	-1.584e-15 	1.584e-15
0.403439 	100000 	1.16103 	2.70897e-12 	0 	0
0.404439 	100000 	1.16103 	1.63353e-12 	3.67787e-15 	-3.67787e-15
0.405439 	100000 	1.16103 	-3.90185e-12 	3.62156e-15 	-3.62156e-15
0.406439 	100000 	1.16103 	-1.55966e-14 	4.86016e-15 	-4.86016e-15
0.407438 	100000 	1.16103 	4.03618e-12 	1.11853e-16 	-1.11853e-16
0.408438 	100000 	1.16103 	7.69475e-12 	0 	0
0.409438 	100000 	1.16103 	5.58057e-12 	-2.35956e-15 	2.35956e-15
0.410438 	100000 	1.16103 	-6.32491e-12 	0 	0
0.411438 	100000 	1.16103 	-3.11061e-12 	0 	0
0.412438 	100000 	1.16103 	3.56202e-12 	0 	0
0.413438 	100000 	1.16103 	1.97461e-12 	0 	0
0.414437 	100000 	1.16103 	1.39091e-11 	0 	0
0.415437 	100000 	1.16103 	1.037e-11 	0 	0
0.416437 	100000 	1.16103 	-4.35892e-12 	0 	0
0.417437 	100000 	1.16103 	-1.0893e-11 	0 	0
0.418437 	100000 	1.16103 	-1.21143e-11 	-1.6474e-15 	1.6474e-15
0.419437 	100000 	1.16103 	1.00553e-11 	1.39714e-15 	-1.39714e-15
0.420436 	100000 	1.16103 	1.48635e-12 	0 	0
0.421436 	100000 	1.16103 	-3.41639e-12 	0 	0
0.422436 	100000 	1.16103 	1.79118e-12 	-1.91936e-15 	1.91936e-15
0.423436 	100000 	1.16103 	3.5974e-12 	-1.02382e-15 	1.02382e-15
0.424436 	100000 	1.16103 	1.57892e-12 	-2.52991e-15 	2.52991e-15
0.425436 	100000 	1.16103 	-1.97875e-12 	-5.21031e-16 	5.21031e-16
0.426436 	100000 	1.16103 	-7.3538e-12 	-1.88487e-15 	1.88487e-15
0.427435 	100000 	1.16103 	-4.6485e-12 	0 	0
0.428435 	100000 	1.16103 	3.59345e-12 	-1.86968e-15 	1.86968e-15
0.429435 	100000 	1.16103 	1.23241e-12 	1.73529e-15 	-1.73529e-15
0.430435 	100000 	1.16103 	-3.25974e-12 	3.41727e-16 	-3.41727e-16
0.431435 	100000 	1.16103 	6.60401e-12 	2.13901e-15 	-2.13901e-15
0.432435 	100000 	1.16103 	-6.73387e-12 	-1.01349e-15 	1.01349e-15
0.433434 	100000 	1.16103 	-9.72042e-12 	9.5364e-16 	-9.5364e-16
0.434434 	100000 	1.16103 	1.98041e-12 	0 	0
0.435434 	100000 	1.16103 	-1.56666e-12 	1.12303e-15 	-1.12303e-15
0.436434 	100000 	1.16103 	1.37093e-11 	-8.61719e-16 	8.61719e-16
0.437434 	100000 	1.16103 	8.06193e-12 	0 	0
0.438434 	100000 	1.16103 	-4.62954e-12 	0 	0
0.439434 	100000 	1.16103 	-8.17275e-12 	-2.19169e-16 	2.19169e-16
0.440433 	100000 	1.16103 	6.11148e-12 	-4.62037e-15 	4.62037e-15
0.441433 	100000 	1.16103 	3.64033e-12 	-4.06307e-15 	4.06307e-15
0.442433 	100000 	1.16103 	-5.55765e-12 	0 	0
0.443433 	100000 	1.16103 	-3.00384e-12 	3.93073e-15 	-3.93073e-15
0.444433 	100000 	1.16103 	2.72478e-12 	4.41019e-15 	-4.41019e-15
0.445433 	100000 	1.16103 	8.99532e-13 	9.47498e-16 	-9.47498e-16
0.446433 	100000 	1.16103 	-3.2502e-12 	0 	0
0.447432 	100000 	1.16103 	-3.68626e-12 	0 	0
0.448432 	100000 	1.16103 	-2.21547e-12 	9.4732e-16 	-9.4732e-16
0.449432 	100000 	1.16103 	-5.9464e-12 	3.77595e-15 	-3.77595e-15
0.450432 	100000 	1.16103 	-1.1383e-12 	7.70118e-16 	-7.70118e-16
0.451432 	100000 	1.16103 	1.64247e-11 	0 	0
0.452432 	100000 	1.16103 	1.21212e-12 	-2.71384e-15 	2.71384e-15
0.453431 	100000 	1.16103 	-1.24148e-11 	-3.4025e-16 	3.4025e-16
0.454431 	100000 	1.16103 	9.426e-12 	0 	0
0.455431 	100000 	1.16103 	-2.8056e-12 	0 	0
0.456431 	100000 	1.16103 	6.07551e-12 	0 	0
0.457431 	100000 	1.16103 	6.32942e-12 	-1.22189e-15 	1.22189e-15
0.458431 	100000 	1.16103 	-8.71754e-12 	-4.54414e-15 	4.54414e-15
0.459431 	100000 	1.16103 	-2.01183e-12 	-5.67825e-15 	5.67825e-15
0.46043 	100000 	1.16103 	-2.53831e-12 	-5.59622e-15 	5.59622e-15
0.46143 	100000 	1.16103 	2.42249e-13 	-4.43174e-15 	4.43174e-15
0.46243 	100000 	1.16103 	9.05876e-12 	-1.15444e-15 	1.15444e-15
0.46343 	100000 	1.16103 	7.19526e-13 	0 	0
0.46443 	100000 	1.16103 	-6.3349e-12 	0 	0
0.46543 	100000 	1.16103 	7.66517e-12 	0 	0
0.466429 	100000 	1.16103 	7.87605e-12 	0 	0
0.467429 	100000 	1.16103 	-6.85504e-12 	0 	0
0.468429 	100000 	1.16103 	-7.84831e-12 	0 	0
0.469429 	100000 	1.16103 	5.13941e-12 	0 	0
0.470429 	100000 	1.16103 	4.30049e-13 	0 	0
0.471429 	100000 	1.16103 	-7.15861e-12 	0 	0
0.472429 	100000 	1.16103 	6.46233e-12 	2.49499e-15 	-2.49499e-15
0.473428 	100000 	1.16103 	4.11691e-12 	0 	0
0.474428 	100000 	1.16103 	-8.87957e-12 	-2.47043e-15 	2.47043e-15
0.475428 	100000 	1.16103 	-2.23313e-12 	-1.92353e-15 	1.92353e-15
0.476428 	100000 	1.16103 	3.1612e-12 	-3.37402e-15 	3.37402e-15
0.477428 	100000 	1.16103 	-1.34258e-12 	-6.92185e-16 	6.92185e-16
0.478428 	100000 	1.16103 	-1.05329e-11 	0 	0
0.479427 	100000 	1.16103 	-9.67968e-12 	2.43326e-15 	-2.43326e-15
0.480427 	100000 	1.16103 	-3.01376e-13 	1.74556e-16 	-1.74556e-16
0.481427 	100000 	1.16103 	4.99708e-12 	0 	0
0.482427 	100000 	1.16103 	1.14436e-11 	0 	0
0.483427 	100000 	1.16103 	1.05711e-11 	0 	0
0.484427 	100000 	1.16103 	-5.33787e-12 	-1.72486e-16 	1.72486e-16
0.485427 	100000 	1.16103 	-5.97599e-12 	-2.30888e-15 	2.30888e-15
0.486426 	100000 	1.16103 	-1.67056e-12 	1.98003e-15 	-1.98003e-15
0.487426 	100000 	1.16103 	3.92012e-12 	1.3368e-16 	-1.3368e-16
0.488426 	100000 	1.16103 	1.66452e-12 	-2.29836e-16 	2.29836e-16
0.489426 	100000 	1.16103 	-3.85929e-13 	-4.65675e-15 	4.65675e-15
0.490426 	100000 	1.16103 	-4.55704e-12 	-4.98281e-15 	4.98281e-15
0.491426 	100000 	1.16103 	4.6024e-12 	-3.92884e-15 	3.92884e-15
0.492425 	100000 	1.16103 	5.10646e-12 	-9.65315e-16 	9.65315e-16
0.493425 	100000 	1.16103 	-3.01549e-12 	0 	0
0.494425 	100000 	1.16103 	-5.39049e-12 	0 	0
0.495425 	100000 	1.16103 	3.64314e-12 	0 	0
0.496425 	100000 	1.16103 	7.03757e-12 	-3.64478e-16 	3.64478e-16
0.497425 	100000 	1.16103 	-4.01522e-12 	-2.55755e-15 	2.55755e-15
0.498425 	100000 	1.16103 	-7.91592e-12 	0 	0
0.499424 	100000 	1.16103 	-1.08393e-11 	0 	0
