/*--------------------------------*- C++ -*----------------------------------*\
| =========                 |                                                 |
| \\      /  F ield         | OpenFOAM: The Open Source CFD Toolbox           |
|  \\    /   O peration     | Version:  2312                                  |
|   \\  /    A nd           | Website:  www.openfoam.com                      |
|    \\/     M anipulation  |                                                 |
\*---------------------------------------------------------------------------*/
FoamFile
{
    version     2.0;
    format      ascii;
    arch        "LSB;label=32;scalar=64";
    class       volScalarField;
    location    "0.08";
    object      p;
}
// * * * * * * * * * * * * * * * * * * * * * * * * * * * * * * * * * * * * * //

dimensions      [1 -1 -2 0 0 0 0];

internalField   nonuniform List<scalar> 
100
(
17825.9
18828
17992.2
18872.2
18345
18945.8
18662.4
19049.8
18935.5
19183.9
19170.2
19338.9
19377.3
19504.5
19566.4
19673.2
19743.9
19840.4
19913.6
20004.1
20077
20163.4
20234.9
20318
20387.7
20467.8
20535.5
20612.8
20678.5
20753.1
20816.9
20889.1
20951.1
21020.9
21081.4
21149.3
21209
21276.2
21337.3
21407.7
21477.2
21564.4
21667.6
21817.4
22034.6
22379.2
22903.4
23674.3
24690.3
25890.9
27121
28241.4
29138.6
29805.7
30256.1
30560.5
30747.9
30876.3
30949.9
31005.9
31033
31058
31063.8
31073
31066.7
31066
31051.3
31043.4
31022.1
31008.6
30982.1
30963.8
30933.3
30910.8
30877.8
30850.6
30816.9
30783.9
30751.5
30710.9
30682.1
30631.7
30608.6
30546.2
30530.8
30455.2
30448.2
30360.1
30361.3
30263.1
30271.1
30167.3
30179.8
30075.7
30090.6
29990.9
30006.7
29915
29931.2
29849.9
)
;

boundaryField
{
    sides
    {
        type            zeroGradient;
    }
    empty
    {
        type            empty;
    }
}


// ************************************************************************* //
