/*--------------------------------*- C++ -*----------------------------------*\
| =========                 |                                                 |
| \\      /  F ield         | OpenFOAM: The Open Source CFD Toolbox           |
|  \\    /   O peration     | Version:  2312                                  |
|   \\  /    A nd           | Website:  www.openfoam.com                      |
|    \\/     M anipulation  |                                                 |
\*---------------------------------------------------------------------------*/
FoamFile
{
    version     2.0;
    format      ascii;
    arch        "LSB;label=32;scalar=64";
    class       volScalarField;
    location    "0.08";
    object      T;
}
// * * * * * * * * * * * * * * * * * * * * * * * * * * * * * * * * * * * * * //

dimensions      [0 0 0 1 0 0 0];

internalField   nonuniform List<scalar> 
100
(
139.789
151.912
149.109
160.043
159.567
168.372
169.679
176.56
178.945
184.287
187.083
191.249
193.968
197.218
199.577
202.075
203.95
205.805
207.173
208.473
209.371
210.202
210.697
211.148
211.321
211.481
211.415
211.369
211.146
210.97
210.658
210.417
210.073
209.815
209.481
209.241
208.944
208.743
208.502
208.357
208.189
208.129
208.084
208.202
208.446
209.028
209.996
211.595
213.774
216.481
219.267
221.855
223.865
225.356
226.262
226.854
227.104
227.264
227.24
227.235
227.12
227.069
226.941
226.897
226.796
226.793
226.743
226.8
226.814
226.937
227.015
227.197
227.326
227.542
227.703
227.916
228.085
228.25
228.41
228.482
228.624
228.565
228.691
228.475
228.593
228.212
228.33
227.792
227.913
227.247
227.363
226.607
226.706
225.902
225.967
225.152
225.173
224.369
224.341
223.555
)
;

boundaryField
{
    sides
    {
        type            zeroGradient;
    }
    empty
    {
        type            empty;
    }
}


// ************************************************************************* //
