/*--------------------------------*- C++ -*----------------------------------*\
| =========                 |                                                 |
| \\      /  F ield         | OpenFOAM: The Open Source CFD Toolbox           |
|  \\    /   O peration     | Version:  2312                                  |
|   \\  /    A nd           | Website:  www.openfoam.com                      |
|    \\/     M anipulation  |                                                 |
\*---------------------------------------------------------------------------*/
FoamFile
{
    version     2.0;
    format      ascii;
    arch        "LSB;label=32;scalar=64";
    class       volScalarField;
    location    "0.08";
    object      thermo:e;
}
// * * * * * * * * * * * * * * * * * * * * * * * * * * * * * * * * * * * * * //

dimensions      [0 2 -2 0 0 0 0];

internalField   nonuniform List<scalar> 
100
(
100536
109255
107239
115103
114760
121093
122033
126982
128697
132539
134550
137546
139502
141839
143536
145332
146681
148015
148999
149934
150580
151177
151533
151858
151982
152097
152050
152017
151856
151730
151506
151332
151085
150899
150659
150486
150273
150128
149955
149851
149730
149687
149654
149739
149914
150333
151029
152179
153746
155693
157697
159558
161004
162076
162727
163153
163333
163448
163431
163428
163345
163308
163216
163184
163112
163109
163074
163114
163124
163213
163269
163400
163493
163648
163764
163917
164039
164157
164272
164324
164426
164384
164474
164319
164404
164130
164215
163828
163915
163436
163520
162976
163047
162468
162516
161929
161944
161366
161346
160781
)
;

boundaryField
{
    sides
    {
        type            zeroGradient;
    }
    empty
    {
        type            empty;
    }
}


// ************************************************************************* //
