/*--------------------------------*- C++ -*----------------------------------*\
| =========                 |                                                 |
| \\      /  F ield         | OpenFOAM: The Open Source CFD Toolbox           |
|  \\    /   O peration     | Version:  2312                                  |
|   \\  /    A nd           | Website:  www.openfoam.com                      |
|    \\/     M anipulation  |                                                 |
\*---------------------------------------------------------------------------*/
FoamFile
{
    version     2.0;
    format      ascii;
    arch        "LSB;label=32;scalar=64";
    class       volScalarField;
    location    "0.0005";
    object      p;
}
// * * * * * * * * * * * * * * * * * * * * * * * * * * * * * * * * * * * * * //

dimensions      [1 -1 -2 0 0 0 0];

internalField   nonuniform List<scalar> 
100
(
6.29087e+08
6.29085e+08
6.29082e+08
6.2908e+08
6.29077e+08
6.29075e+08
6.29073e+08
6.29071e+08
6.29069e+08
6.29067e+08
6.29065e+08
6.29064e+08
6.29062e+08
6.29061e+08
6.2906e+08
6.29059e+08
6.29058e+08
6.29057e+08
6.29056e+08
6.29056e+08
6.29055e+08
6.29055e+08
6.29055e+08
6.29055e+08
6.29055e+08
6.29055e+08
6.29055e+08
6.29055e+08
6.29056e+08
6.29056e+08
6.29057e+08
6.29057e+08
6.29058e+08
6.29059e+08
6.29059e+08
6.2906e+08
6.29061e+08
6.29063e+08
6.29064e+08
6.29065e+08
6.29067e+08
6.29069e+08
6.29072e+08
6.29075e+08
6.29079e+08
6.29085e+08
6.29092e+08
6.291e+08
6.29111e+08
6.29126e+08
6.29144e+08
6.29167e+08
6.29195e+08
6.29231e+08
6.29274e+08
6.29328e+08
6.29392e+08
6.29468e+08
6.29559e+08
6.29665e+08
6.29788e+08
6.29929e+08
6.3009e+08
6.30271e+08
6.30473e+08
6.30696e+08
6.30941e+08
6.31206e+08
6.31492e+08
6.31797e+08
6.3212e+08
6.32458e+08
6.32811e+08
6.33175e+08
6.33549e+08
6.3393e+08
6.34314e+08
6.34701e+08
6.35088e+08
6.35471e+08
6.35849e+08
6.36221e+08
6.36584e+08
6.36937e+08
6.37279e+08
6.37608e+08
6.37925e+08
6.38229e+08
6.38519e+08
6.38795e+08
6.39058e+08
6.39308e+08
6.39545e+08
6.3977e+08
6.39982e+08
6.40183e+08
6.40373e+08
6.40552e+08
6.40718e+08
6.40851e+08
)
;

boundaryField
{
    sides
    {
        type            zeroGradient;
    }
    empty
    {
        type            empty;
    }
}


// ************************************************************************* //
