/*--------------------------------*- C++ -*----------------------------------*\
| =========                 |                                                 |
| \\      /  F ield         | OpenFOAM: The Open Source CFD Toolbox           |
|  \\    /   O peration     | Version:  2312                                  |
|   \\  /    A nd           | Website:  www.openfoam.com                      |
|    \\/     M anipulation  |                                                 |
\*---------------------------------------------------------------------------*/
FoamFile
{
    version     2.0;
    format      ascii;
    arch        "LSB;label=32;scalar=64";
    class       volScalarField;
    location    "0.0005";
    object      rho;
}
// * * * * * * * * * * * * * * * * * * * * * * * * * * * * * * * * * * * * * //

dimensions      [1 -3 0 0 0 0 0];

internalField   nonuniform List<scalar> 
100
(
0.0963525
0.0963521
0.0963517
0.0963514
0.096351
0.0963506
0.0963503
0.09635
0.0963497
0.0963494
0.0963491
0.0963489
0.0963487
0.0963485
0.0963483
0.0963481
0.096348
0.0963479
0.0963478
0.0963477
0.0963476
0.0963476
0.0963475
0.0963475
0.0963475
0.0963475
0.0963476
0.0963476
0.0963477
0.0963477
0.0963478
0.0963479
0.096348
0.0963481
0.0963483
0.0963484
0.0963486
0.0963487
0.0963489
0.0963492
0.0963494
0.0963498
0.0963502
0.0963507
0.0963513
0.0963521
0.0963532
0.0963545
0.0963562
0.0963584
0.0963612
0.0963647
0.0963691
0.0963745
0.0963812
0.0963893
0.0963992
0.0964109
0.0964248
0.096441
0.0964599
0.0964815
0.0965061
0.0965338
0.0965648
0.096599
0.0966364
0.0966771
0.0967209
0.0967676
0.096817
0.0968688
0.0969228
0.0969786
0.0970359
0.0970942
0.0971531
0.0972124
0.0972715
0.0973303
0.0973882
0.0974451
0.0975007
0.0975548
0.0976071
0.0976576
0.0977062
0.0977527
0.0977971
0.0978394
0.0978797
0.097918
0.0979543
0.0979886
0.0980212
0.098052
0.0980811
0.0981086
0.0981339
0.0981543
)
;

boundaryField
{
    sides
    {
        type            zeroGradient;
    }
    empty
    {
        type            empty;
    }
}


// ************************************************************************* //
