/*--------------------------------*- C++ -*----------------------------------*\
| =========                 |                                                 |
| \\      /  F ield         | OpenFOAM: The Open Source CFD Toolbox           |
|  \\    /   O peration     | Version:  2312                                  |
|   \\  /    A nd           | Website:  www.openfoam.com                      |
|    \\/     M anipulation  |                                                 |
\*---------------------------------------------------------------------------*/
FoamFile
{
    version     2.0;
    format      ascii;
    arch        "LSB;label=32;scalar=64";
    class       volScalarField;
    location    "0.0005";
    object      thermo:e;
}
// * * * * * * * * * * * * * * * * * * * * * * * * * * * * * * * * * * * * * //

dimensions      [0 2 -2 0 0 0 0];

internalField   nonuniform List<scalar> 
100
(
2.70578e+10
2.72858e+10
2.76815e+10
2.81989e+10
2.88025e+10
2.94651e+10
3.01659e+10
3.0889e+10
3.16222e+10
3.23562e+10
3.3084e+10
3.38002e+10
3.45008e+10
3.51826e+10
3.58435e+10
3.64819e+10
3.70967e+10
3.7687e+10
3.82524e+10
3.87928e+10
3.93082e+10
3.97986e+10
4.02644e+10
4.0706e+10
4.11238e+10
4.15185e+10
4.18907e+10
4.2241e+10
4.25701e+10
4.28788e+10
4.31679e+10
4.34382e+10
4.36904e+10
4.39254e+10
4.4144e+10
4.4347e+10
4.45351e+10
4.47093e+10
4.48702e+10
4.50186e+10
4.51552e+10
4.52809e+10
4.53962e+10
4.55019e+10
4.55986e+10
4.56869e+10
4.57675e+10
4.58408e+10
4.59075e+10
4.5968e+10
4.60229e+10
4.60726e+10
4.61175e+10
4.61581e+10
4.61948e+10
4.62278e+10
4.62576e+10
4.62845e+10
4.63087e+10
4.63306e+10
4.63504e+10
4.63683e+10
4.63846e+10
4.63994e+10
4.64129e+10
4.64253e+10
4.64368e+10
4.64473e+10
4.64571e+10
4.64663e+10
4.64749e+10
4.64829e+10
4.64905e+10
4.64977e+10
4.65046e+10
4.65111e+10
4.65173e+10
4.65232e+10
4.65288e+10
4.65341e+10
4.65392e+10
4.6544e+10
4.65486e+10
4.65529e+10
4.6557e+10
4.65609e+10
4.65646e+10
4.6568e+10
4.65713e+10
4.65743e+10
4.65772e+10
4.65799e+10
4.65824e+10
4.65848e+10
4.6587e+10
4.65891e+10
4.65911e+10
4.6593e+10
4.65947e+10
4.6596e+10
)
;

boundaryField
{
    sides
    {
        type            zeroGradient;
    }
    empty
    {
        type            empty;
    }
}


// ************************************************************************* //
