/*--------------------------------*- C++ -*----------------------------------*\
| =========                 |                                                 |
| \\      /  F ield         | OpenFOAM: The Open Source CFD Toolbox           |
|  \\    /   O peration     | Version:  2312                                  |
|   \\  /    A nd           | Website:  www.openfoam.com                      |
|    \\/     M anipulation  |                                                 |
\*---------------------------------------------------------------------------*/
FoamFile
{
    version     2.0;
    format      ascii;
    arch        "LSB;label=32;scalar=64";
    class       volVectorField;
    location    "0.0005";
    object      U;
}
// * * * * * * * * * * * * * * * * * * * * * * * * * * * * * * * * * * * * * //

dimensions      [0 1 -1 0 0 0 0];

internalField   nonuniform List<vector> 
100
(
(-15291.1 0 0)
(-15290.8 0 0)
(-15290.4 0 0)
(-15290.1 0 0)
(-15289.7 0 0)
(-15289.4 0 0)
(-15289.1 0 0)
(-15288.8 0 0)
(-15288.5 0 0)
(-15288.3 0 0)
(-15288 0 0)
(-15287.8 0 0)
(-15287.6 0 0)
(-15287.4 0 0)
(-15287.2 0 0)
(-15287.1 0 0)
(-15286.9 0 0)
(-15286.8 0 0)
(-15286.7 0 0)
(-15286.6 0 0)
(-15286.6 0 0)
(-15286.5 0 0)
(-15286.5 0 0)
(-15286.5 0 0)
(-15286.5 0 0)
(-15286.5 0 0)
(-15286.5 0 0)
(-15286.5 0 0)
(-15286.6 0 0)
(-15286.7 0 0)
(-15286.7 0 0)
(-15286.8 0 0)
(-15286.9 0 0)
(-15287 0 0)
(-15287.1 0 0)
(-15287.2 0 0)
(-15287.3 0 0)
(-15287.4 0 0)
(-15287.5 0 0)
(-15287.5 0 0)
(-15287.6 0 0)
(-15287.6 0 0)
(-15287.5 0 0)
(-15287.4 0 0)
(-15287.1 0 0)
(-15286.8 0 0)
(-15286.2 0 0)
(-15285.4 0 0)
(-15284.3 0 0)
(-15282.8 0 0)
(-15280.7 0 0)
(-15278.1 0 0)
(-15274.8 0 0)
(-15270.6 0 0)
(-15265.3 0 0)
(-15258.9 0 0)
(-15251 0 0)
(-15241.5 0 0)
(-15230.3 0 0)
(-15217.1 0 0)
(-15201.7 0 0)
(-15183.9 0 0)
(-15163.7 0 0)
(-15140.9 0 0)
(-15115.5 0 0)
(-15087.3 0 0)
(-15056.4 0 0)
(-15022.8 0 0)
(-14986.6 0 0)
(-14948 0 0)
(-14907.2 0 0)
(-14864.3 0 0)
(-14819.7 0 0)
(-14773.6 0 0)
(-14726.3 0 0)
(-14678.2 0 0)
(-14629.5 0 0)
(-14580.7 0 0)
(-14531.9 0 0)
(-14483.5 0 0)
(-14435.8 0 0)
(-14389 0 0)
(-14343.3 0 0)
(-14298.9 0 0)
(-14256 0 0)
(-14214.6 0 0)
(-14174.9 0 0)
(-14137 0 0)
(-14100.7 0 0)
(-14066.2 0 0)
(-14033.5 0 0)
(-14002.5 0 0)
(-13973.1 0 0)
(-13945.3 0 0)
(-13919.1 0 0)
(-13894.4 0 0)
(-13871.1 0 0)
(-13849.2 0 0)
(-13829.1 0 0)
(-13812.9 0 0)
)
;

boundaryField
{
    sides
    {
        type            zeroGradient;
    }
    empty
    {
        type            empty;
    }
}


// ************************************************************************* //
