/*--------------------------------*- C++ -*----------------------------------*\
| =========                 |                                                 |
| \\      /  F ield         | OpenFOAM: The Open Source CFD Toolbox           |
|  \\    /   O peration     | Version:  2312                                  |
|   \\  /    A nd           | Website:  www.openfoam.com                      |
|    \\/     M anipulation  |                                                 |
\*---------------------------------------------------------------------------*/
FoamFile
{
    version     2.0;
    format      ascii;
    arch        "LSB;label=32;scalar=64";
    class       volScalarField;
    location    "0.00013";
    object      p;
}
// * * * * * * * * * * * * * * * * * * * * * * * * * * * * * * * * * * * * * //

dimensions      [1 -1 -2 0 0 0 0];

internalField   nonuniform List<scalar> 
500
(
274408
274473
274513
274540
274560
274577
274591
274603
274614
274624
274632
274641
274649
274656
274663
274670
274676
274682
274688
274694
274700
274706
274712
274717
274723
274728
274734
274739
274745
274750
274756
274761
274767
274773
274778
274784
274790
274796
274802
274808
274814
274820
274826
274832
274839
274846
274852
274859
274866
274873
274880
274888
274895
274903
274911
274919
274927
274935
274943
274952
274961
274970
274979
274989
274999
275009
275019
275029
275040
275051
275062
275074
275086
275098
275110
275123
275136
275149
275163
275177
275192
275207
275222
275238
275254
275271
275288
275305
275324
275342
275361
275381
275401
275422
275444
275466
275488
275512
275536
275561
275587
275613
275640
275668
275697
275727
275758
275790
275822
275856
275891
275927
275964
276003
276042
276083
276125
276169
276214
276261
276309
276359
276411
276464
276519
276576
276635
276697
276760
276825
276893
276963
277036
277111
277189
277270
277354
277440
277530
277623
277720
277820
277924
278031
278143
278259
278379
278504
278633
278767
278907
279051
279201
279357
279519
279687
279862
280043
280231
280427
280630
280841
281061
281289
281526
281772
282028
282294
282570
282858
283157
283468
283791
284127
284477
284840
285218
285611
286020
286446
286888
287348
287827
288325
288843
289382
289943
290527
291134
291766
292423
293107
293819
294559
295330
296132
296966
297835
298738
299679
300657
301676
302735
303838
304986
306181
307424
308718
310065
311466
312925
314443
316023
317668
319380
321161
323016
324946
326956
329047
331225
333491
335850
338306
340863
343525
346296
349180
352184
355311
358566
361956
365485
369159
372985
376969
381117
385437
389934
394617
399494
404571
409858
415364
421096
427065
433279
439749
446486
453499
460799
468398
476308
484540
493106
502019
511291
520935
530963
541383
552195
563419
575066
587138
599632
612533
625807
639391
653171
666949
680392
692945
703683
711093
712726
704737
681397
635011
557489
446558
316546
201420
132576
107362
101385
100245
100041
100005
99998.9
99997.8
99997.6
99997.6
99997.6
99997.6
99997.6
99997.6
99997.6
99997.6
99997.6
99997.6
99997.6
99997.6
99997.6
99997.6
99997.6
99997.6
99997.6
99997.6
99997.6
99997.6
99997.6
99997.6
99997.6
99997.6
99997.6
99997.6
99997.6
99997.6
99997.6
99997.6
99997.6
99997.6
99997.6
99997.6
99997.6
99997.6
99997.6
99997.6
99997.6
99997.6
99997.6
99997.6
99997.6
99997.6
99997.6
99997.6
99997.6
99997.6
99997.6
99997.6
99997.6
99997.6
99997.6
99997.6
99997.6
99997.6
99997.6
99997.6
99997.6
99997.6
99997.6
99997.6
99997.6
99997.6
99997.6
99997.6
99997.6
99997.6
99997.6
99997.6
99997.6
99997.6
99997.6
99997.6
99997.6
99997.6
99997.6
99997.6
99997.6
99997.6
99997.6
99997.6
99997.6
99997.6
99997.6
99997.6
99997.6
99997.6
99997.6
99997.6
99997.6
99997.6
99997.6
99997.6
99997.6
99997.6
99997.6
99997.6
99997.6
99997.6
99997.6
99997.6
99997.6
99997.6
99997.6
99997.6
99997.6
99997.6
99997.6
99997.6
99997.6
99997.6
99997.6
99997.6
99997.6
99997.6
99997.6
99997.6
99997.6
99997.6
99997.6
99997.6
99997.6
99997.6
99997.6
99997.6
99997.6
99997.6
99997.6
99997.6
99997.6
99997.6
99997.6
99997.6
99997.6
99997.6
99997.6
99997.6
99997.6
99997.6
99997.6
99997.6
99997.6
99997.6
99997.6
99997.6
99997.6
99997.6
99997.6
99997.6
99997.6
99997.6
99997.6
99997.6
99997.6
99997.6
99997.6
99997.6
99997.6
99997.6
99997.6
99997.6
99997.6
99997.6
99997.6
99997.6
99997.6
99997.6
99997.6
99997.6
99997.6
99997.6
99997.6
99997.6
99997.6
99997.6
99997.6
99997.6
99997.6
99997.6
99997.6
99997.6
99997.6
99997.6
99997.6
99997.6
99997.6
99997.6
99997.6
99997.6
99997.6
99997.6
99997.6
99997.6
99997.6
99997.6
99997.6
99997.6
99997.6
99997.6
99997.6
99997.6
99997.6
99997.6
99997.6
99997.6
99997.6
99997.6
99997.6
99997.6
)
;

boundaryField
{
    wedge0
    {
        type            wedge;
    }
    wedge1
    {
        type            wedge;
    }
    wedge2
    {
        type            wedge;
    }
    wedge3
    {
        type            wedge;
    }
    outlet
    {
        type            zeroGradient;
    }
    defaultFaces
    {
        type            empty;
    }
}


// ************************************************************************* //
