/*--------------------------------*- C++ -*----------------------------------*\
| =========                 |                                                 |
| \\      /  F ield         | OpenFOAM: The Open Source CFD Toolbox           |
|  \\    /   O peration     | Version:  2312                                  |
|   \\  /    A nd           | Website:  www.openfoam.com                      |
|    \\/     M anipulation  |                                                 |
\*---------------------------------------------------------------------------*/
FoamFile
{
    version     2.0;
    format      ascii;
    arch        "LSB;label=32;scalar=64";
    class       volScalarField;
    location    "0.00013";
    object      rho;
}
// * * * * * * * * * * * * * * * * * * * * * * * * * * * * * * * * * * * * * //

dimensions      [1 -3 0 0 0 0 0];

internalField   nonuniform List<scalar> 
500
(
0.00492932
0.00493135
0.00493426
0.0049382
0.00494327
0.00494948
0.00495688
0.00496547
0.00497526
0.00498626
0.00499849
0.00501195
0.00502666
0.00504263
0.00505986
0.00507838
0.00509819
0.00511931
0.00514176
0.00516554
0.00519068
0.0052172
0.00524511
0.00527444
0.0053052
0.00533742
0.00537112
0.00540632
0.00544306
0.00548135
0.00552122
0.00556271
0.00560585
0.00565066
0.00569718
0.00574544
0.00579549
0.00584735
0.00590107
0.00595668
0.00601424
0.00607378
0.00613535
0.00619899
0.00626477
0.00633272
0.0064029
0.00647537
0.00655018
0.0066274
0.00670708
0.00678929
0.0068741
0.00696158
0.00705179
0.00714481
0.00724073
0.00733961
0.00744155
0.00754663
0.00765493
0.00776656
0.00788161
0.00800017
0.00812236
0.00824827
0.00837803
0.00851174
0.00864952
0.00879151
0.00893783
0.0090886
0.00924398
0.00940411
0.00956913
0.0097392
0.00991448
0.0100951
0.0102813
0.0104733
0.0106711
0.0108751
0.0110854
0.0113022
0.0115257
0.0117562
0.0119938
0.0122389
0.0124917
0.0127525
0.0130214
0.0132988
0.013585
0.0138803
0.014185
0.0144994
0.0148239
0.0151588
0.0155045
0.0158613
0.0162297
0.01661
0.0170027
0.0174082
0.017827
0.0182595
0.0187063
0.0191678
0.0196446
0.0201372
0.0206462
0.0211723
0.0217159
0.0222778
0.0228586
0.023459
0.0240797
0.0247215
0.0253852
0.0260714
0.0267812
0.0275153
0.0282746
0.0290601
0.0298727
0.0307135
0.0315834
0.0324835
0.0334151
0.0343791
0.035377
0.0364097
0.0374788
0.0385855
0.0397312
0.0409174
0.0421456
0.0434172
0.044734
0.0460976
0.0475096
0.048972
0.0504865
0.0520552
0.0536798
0.0553626
0.0571056
0.0589111
0.0607813
0.0627186
0.0647254
0.0668043
0.0689578
0.0711887
0.0734997
0.0758937
0.0783737
0.0809428
0.0836041
0.0863609
0.0892166
0.0921747
0.0952387
0.0984125
0.1017
0.105105
0.108631
0.112283
0.116065
0.119982
0.124038
0.128237
0.132586
0.137088
0.14175
0.146575
0.151571
0.156741
0.162093
0.167632
0.173365
0.179297
0.185436
0.191787
0.198358
0.205156
0.212188
0.219462
0.226986
0.234766
0.242812
0.251132
0.259735
0.268629
0.277823
0.287328
0.297152
0.307306
0.317799
0.328643
0.339849
0.351427
0.363389
0.375747
0.388513
0.4017
0.415321
0.429389
0.443918
0.458922
0.474417
0.490416
0.506937
0.523994
0.541605
0.559787
0.578558
0.597936
0.61794
0.63859
0.659905
0.681908
0.704619
0.728062
0.752258
0.777233
0.803011
0.829617
0.857077
0.88542
0.914674
0.944867
0.976029
1.00819
1.04139
1.07565
1.11101
1.14751
1.18517
1.22405
1.26417
1.30558
1.34831
1.39241
1.43791
1.48487
1.53333
1.58332
1.6349
1.68811
1.743
1.79962
1.858
1.91821
1.98028
2.04426
2.1102
2.17815
2.24813
2.32016
2.39406
2.46996
2.54798
2.62813
2.7104
2.79473
2.88099
2.96892
3.0581
3.14779
3.23676
3.32297
3.40301
3.47131
3.51881
3.53115
3.48658
3.35502
3.10202
2.70648
2.20315
1.70809
1.36509
1.21412
1.17188
1.16301
1.16136
1.16106
1.16101
1.161
1.161
1.161
1.161
1.161
1.161
1.161
1.161
1.161
1.161
1.161
1.161
1.161
1.161
1.161
1.161
1.161
1.161
1.161
1.161
1.161
1.161
1.161
1.161
1.161
1.161
1.161
1.161
1.161
1.161
1.161
1.161
1.161
1.161
1.161
1.161
1.161
1.161
1.161
1.161
1.161
1.161
1.161
1.161
1.161
1.161
1.161
1.161
1.161
1.161
1.161
1.161
1.161
1.161
1.161
1.161
1.161
1.161
1.161
1.161
1.161
1.161
1.161
1.161
1.161
1.161
1.161
1.161
1.161
1.161
1.161
1.161
1.161
1.161
1.161
1.161
1.161
1.161
1.161
1.161
1.161
1.161
1.161
1.161
1.161
1.161
1.161
1.161
1.161
1.161
1.161
1.161
1.161
1.161
1.161
1.161
1.161
1.161
1.161
1.161
1.161
1.161
1.161
1.161
1.161
1.161
1.161
1.161
1.161
1.161
1.161
1.161
1.161
1.161
1.161
1.161
1.161
1.161
1.161
1.161
1.161
1.161
1.161
1.161
1.161
1.161
1.161
1.161
1.161
1.161
1.161
1.161
1.161
1.161
1.161
1.161
1.161
1.161
1.161
1.161
1.161
1.161
1.161
1.161
1.161
1.161
1.161
1.161
1.161
1.161
1.161
1.161
1.161
1.161
1.161
1.161
1.161
1.161
1.161
1.161
1.161
1.161
1.161
1.161
1.161
1.161
1.161
1.161
1.161
1.161
1.161
1.161
1.161
1.161
1.161
1.161
1.161
1.161
1.161
1.161
1.161
1.161
1.161
1.161
1.161
1.161
1.161
1.161
1.161
1.161
1.161
1.161
1.161
1.161
1.161
1.161
1.161
1.161
1.161
1.161
1.161
1.161
1.161
1.161
1.161
1.161
1.161
1.161
1.161
1.161
1.161
)
;

boundaryField
{
    wedge0
    {
        type            wedge;
    }
    wedge1
    {
        type            wedge;
    }
    wedge2
    {
        type            wedge;
    }
    wedge3
    {
        type            wedge;
    }
    outlet
    {
        type            zeroGradient;
    }
    defaultFaces
    {
        type            empty;
    }
}


// ************************************************************************* //
