/*--------------------------------*- C++ -*----------------------------------*\
| =========                 |                                                 |
| \\      /  F ield         | OpenFOAM: The Open Source CFD Toolbox           |
|  \\    /   O peration     | Version:  2312                                  |
|   \\  /    A nd           | Website:  www.openfoam.com                      |
|    \\/     M anipulation  |                                                 |
\*---------------------------------------------------------------------------*/
FoamFile
{
    version     2.0;
    format      ascii;
    arch        "LSB;label=32;scalar=64";
    class       volScalarField;
    location    "0.00013";
    object      T;
}
// * * * * * * * * * * * * * * * * * * * * * * * * * * * * * * * * * * * * * //

dimensions      [0 0 0 1 0 0 0];

internalField   nonuniform List<scalar> 
500
(
193898
193864
193778
193642
193459
193227
192949
192623
192252
191835
191371
190863
190310
189712
189071
188386
187659
186889
186077
185224
184331
183398
182426
181415
180367
179282
178160
177004
175813
174588
173331
172041
170721
169371
167991
166584
165149
163687
162201
160690
159155
157599
156021
154423
152805
151169
149516
147846
146161
144462
142749
141025
139288
137542
135786
134022
132251
130473
128690
126902
125110
123316
121520
119724
117927
116131
114336
112545
110756
108972
107192
105418
103651
101890
100138
98393.7
96658.8
94933.7
93219
91515.3
89823.3
88143.4
86476.3
84822.4
83182.3
81556.4
79945.3
78349.2
76768.8
75204.3
73656.2
72124.8
70610.5
69113.5
67634.2
66172.9
64729.8
63305.2
61899.2
60512.2
59144.2
57795.5
56466.3
55156.5
53866.5
52596.2
51345.7
50115.2
48904.7
47714.2
46543.7
45393.2
44262.8
43152.4
42062
40991.6
39941
38910.2
37899.2
36907.8
35936
34983.6
34050.4
33136.4
32241.5
31365.4
30508
29669.1
28848.6
28046.2
27261.9
26495.3
25746.3
25014.6
24300.1
23602.5
22921.7
22257.3
21609.1
20976.9
20360.5
19759.7
19174.1
18603.5
18047.7
17506.4
16979.4
16466.4
15967.1
15481.4
15008.9
14549.3
14102.6
13668.3
13246.2
12836
12437.6
12050.7
11674.9
11310.1
10956
10612.4
10279
9955.57
9641.88
9337.71
9042.8
8756.93
8479.87
8211.4
7951.29
7699.33
7455.3
7218.99
6990.19
6768.69
6554.3
6346.82
6146.04
5951.79
5763.88
5582.12
5406.33
5236.33
5071.96
4913.05
4759.43
4610.95
4467.44
4328.75
4194.74
4065.26
3940.16
3819.31
3702.57
3589.81
3480.91
3375.74
3274.18
3176.11
3081.41
2989.99
2901.72
2816.51
2734.25
2654.85
2578.21
2504.24
2432.84
2363.94
2297.44
2233.27
2171.35
2111.6
2053.94
1998.32
1944.65
1892.87
1842.92
1794.74
1748.26
1703.42
1660.18
1618.47
1578.25
1539.47
1502.07
1466.01
1431.24
1397.73
1365.42
1334.29
1304.28
1275.37
1247.51
1220.67
1194.83
1169.94
1145.97
1122.9
1100.7
1079.34
1058.79
1039.03
1020.03
1001.77
984.231
967.386
951.217
935.703
920.825
906.565
892.905
879.827
867.317
855.357
843.933
833.03
822.633
812.739
803.382
794.521
786.115
778.14
770.576
763.401
756.594
750.122
743.942
737.99
732.171
726.335
720.241
713.504
705.489
695.145
680.715
659.251
625.973
574.693
500.446
410.729
338.273
308
301.338
300.222
300.038
300.006
300.001
300
300
300
300
300
300
300
300
300
300
300
300
300
300
300
300
300
300
300
300
300
300
300
300
300
300
300
300
300
300
300
300
300
300
300
300
300
300
300
300
300
300
300
300
300
300
300
300
300
300
300
300
300
300
300
300
300
300
300
300
300
300
300
300
300
300
300
300
300
300
300
300
300
300
300
300
300
300
300
300
300
300
300
300
300
300
300
300
300
300
300
300
300
300
300
300
300
300
300
300
300
300
300
300
300
300
300
300
300
300
300
300
300
300
300
300
300
300
300
300
300
300
300
300
300
300
300
300
300
300
300
300
300
300
300
300
300
300
300
300
300
300
300
300
300
300
300
300
300
300
300
300
300
300
300
300
300
300
300
300
300
300
300
300
300
300
300
300
300
300
300
300
300
300
300
300
300
300
300
300
300
300
300
300
300
300
300
300
300
300
300
300
300
300
300
300
300
300
300
300
300
300
300
300
300
300
300
300
300
300
300
)
;

boundaryField
{
    wedge0
    {
        type            wedge;
    }
    wedge1
    {
        type            wedge;
    }
    wedge2
    {
        type            wedge;
    }
    wedge3
    {
        type            wedge;
    }
    outlet
    {
        type            zeroGradient;
    }
    defaultFaces
    {
        type            empty;
    }
}


// ************************************************************************* //
