/*--------------------------------*- C++ -*----------------------------------*\
| =========                 |                                                 |
| \\      /  F ield         | OpenFOAM: The Open Source CFD Toolbox           |
|  \\    /   O peration     | Version:  2312                                  |
|   \\  /    A nd           | Website:  www.openfoam.com                      |
|    \\/     M anipulation  |                                                 |
\*---------------------------------------------------------------------------*/
FoamFile
{
    version     2.0;
    format      ascii;
    arch        "LSB;label=32;scalar=64";
    class       volScalarField;
    location    "0.00013";
    object      thermo:e;
}
// * * * * * * * * * * * * * * * * * * * * * * * * * * * * * * * * * * * * * //

dimensions      [0 2 -2 0 0 0 0];

internalField   nonuniform List<scalar> 
500
(
1.39161e+08
1.39136e+08
1.39075e+08
1.38977e+08
1.38845e+08
1.38679e+08
1.38479e+08
1.38246e+08
1.37979e+08
1.3768e+08
1.37347e+08
1.36982e+08
1.36585e+08
1.36157e+08
1.35696e+08
1.35205e+08
1.34683e+08
1.3413e+08
1.33547e+08
1.32935e+08
1.32294e+08
1.31625e+08
1.30927e+08
1.30202e+08
1.29449e+08
1.2867e+08
1.27866e+08
1.27036e+08
1.26181e+08
1.25302e+08
1.24399e+08
1.23474e+08
1.22527e+08
1.21557e+08
1.20567e+08
1.19557e+08
1.18527e+08
1.17478e+08
1.16411e+08
1.15327e+08
1.14226e+08
1.13109e+08
1.11976e+08
1.10829e+08
1.09668e+08
1.08494e+08
1.07307e+08
1.06109e+08
1.049e+08
1.0368e+08
1.02451e+08
1.01213e+08
9.99673e+07
9.87139e+07
9.74539e+07
9.61878e+07
9.49165e+07
9.36405e+07
9.23606e+07
9.10775e+07
8.97918e+07
8.85041e+07
8.72152e+07
8.59257e+07
8.46361e+07
8.33471e+07
8.20593e+07
8.07733e+07
7.94897e+07
7.8209e+07
7.69318e+07
7.56587e+07
7.43902e+07
7.31267e+07
7.18689e+07
7.06172e+07
6.9372e+07
6.81339e+07
6.69033e+07
6.56805e+07
6.44662e+07
6.32605e+07
6.2064e+07
6.0877e+07
5.96999e+07
5.8533e+07
5.73767e+07
5.62313e+07
5.5097e+07
5.39742e+07
5.28631e+07
5.1764e+07
5.06771e+07
4.96028e+07
4.85411e+07
4.74923e+07
4.64566e+07
4.54341e+07
4.44251e+07
4.34296e+07
4.24478e+07
4.14799e+07
4.05258e+07
3.95858e+07
3.866e+07
3.77483e+07
3.68508e+07
3.59677e+07
3.50989e+07
3.42444e+07
3.34044e+07
3.25787e+07
3.17674e+07
3.09705e+07
3.01879e+07
2.94197e+07
2.86657e+07
2.79259e+07
2.72003e+07
2.64888e+07
2.57913e+07
2.51077e+07
2.4438e+07
2.3782e+07
2.31397e+07
2.25109e+07
2.18956e+07
2.12935e+07
2.07046e+07
2.01288e+07
1.95658e+07
1.90157e+07
1.84781e+07
1.7953e+07
1.74402e+07
1.69395e+07
1.64509e+07
1.5974e+07
1.55088e+07
1.50551e+07
1.46128e+07
1.41815e+07
1.37612e+07
1.33517e+07
1.29528e+07
1.25643e+07
1.21861e+07
1.18179e+07
1.14596e+07
1.1111e+07
1.07719e+07
1.04421e+07
1.01214e+07
9.8097e+06
9.50677e+06
9.21242e+06
8.92647e+06
8.64875e+06
8.37908e+06
8.11726e+06
7.86313e+06
7.61652e+06
7.37723e+06
7.14511e+06
6.91998e+06
6.70167e+06
6.49001e+06
6.28485e+06
6.086e+06
5.89332e+06
5.70664e+06
5.52581e+06
5.35067e+06
5.18107e+06
5.01686e+06
4.85789e+06
4.70402e+06
4.55511e+06
4.41102e+06
4.2716e+06
4.13674e+06
4.00628e+06
3.88012e+06
3.75812e+06
3.64015e+06
3.5261e+06
3.41585e+06
3.30928e+06
3.20628e+06
3.10675e+06
3.01056e+06
2.91763e+06
2.82785e+06
2.74112e+06
2.65733e+06
2.57641e+06
2.49825e+06
2.42277e+06
2.34988e+06
2.27949e+06
2.21153e+06
2.14591e+06
2.08257e+06
2.02141e+06
1.96237e+06
1.90539e+06
1.85038e+06
1.79729e+06
1.74605e+06
1.6966e+06
1.64887e+06
1.60282e+06
1.55838e+06
1.51549e+06
1.47411e+06
1.43419e+06
1.39567e+06
1.35851e+06
1.32266e+06
1.28808e+06
1.25472e+06
1.22255e+06
1.19151e+06
1.16158e+06
1.13271e+06
1.10488e+06
1.07803e+06
1.05215e+06
1.0272e+06
1.00315e+06
979964
957617
936081
915330
895337
876077
857527
839663
822463
805906
789972
774640
759892
745709
732074
718971
706382
694293
682689
671554
660876
650642
640838
631452
622473
613890
605691
597866
590404
583302
576587
570228
564195
558471
553042
547893
543007
538362
533927
529656
525479
521290
516917
512082
506329
498906
488549
473144
449261
412457
359170
294780
242779
221052
216270
215469
215337
215315
215311
215310
215310
215310
215310
215310
215310
215310
215310
215310
215310
215310
215310
215310
215310
215310
215310
215310
215310
215310
215310
215310
215310
215310
215310
215310
215310
215310
215310
215310
215310
215310
215310
215310
215310
215310
215310
215310
215310
215310
215310
215310
215310
215310
215310
215310
215310
215310
215310
215310
215310
215310
215310
215310
215310
215310
215310
215310
215310
215310
215310
215310
215310
215310
215310
215310
215310
215310
215310
215310
215310
215310
215310
215310
215310
215310
215310
215310
215310
215310
215310
215310
215310
215310
215310
215310
215310
215310
215310
215310
215310
215310
215310
215310
215310
215310
215310
215310
215310
215310
215310
215310
215310
215310
215310
215310
215310
215310
215310
215310
215310
215310
215310
215310
215310
215310
215310
215310
215310
215310
215310
215310
215310
215310
215310
215310
215310
215310
215310
215310
215310
215310
215310
215310
215310
215310
215310
215310
215310
215310
215310
215310
215310
215310
215310
215310
215310
215310
215310
215310
215310
215310
215310
215310
215310
215310
215310
215310
215310
215310
215310
215310
215310
215310
215310
215310
215310
215310
215310
215310
215310
215310
215310
215310
215310
215310
215310
215310
215310
215310
215310
215310
215310
215310
215310
215310
215310
215310
215310
215310
215310
215310
215310
215310
215310
215310
215310
215310
215310
215310
215310
215310
215310
215310
215310
215310
215310
215310
215310
215310
215310
215310
)
;

boundaryField
{
    wedge0
    {
        type            wedge;
    }
    wedge1
    {
        type            wedge;
    }
    wedge2
    {
        type            wedge;
    }
    wedge3
    {
        type            wedge;
    }
    outlet
    {
        type            zeroGradient;
    }
    defaultFaces
    {
        type            empty;
    }
}


// ************************************************************************* //
