/*--------------------------------*- C++ -*----------------------------------*\
| =========                 |                                                 |
| \\      /  F ield         | OpenFOAM: The Open Source CFD Toolbox           |
|  \\    /   O peration     | Version:  2312                                  |
|   \\  /    A nd           | Website:  www.openfoam.com                      |
|    \\/     M anipulation  |                                                 |
\*---------------------------------------------------------------------------*/
FoamFile
{
    version     2.0;
    format      ascii;
    arch        "LSB;label=32;scalar=64";
    class       volVectorField;
    location    "0.00013";
    object      U;
}
// * * * * * * * * * * * * * * * * * * * * * * * * * * * * * * * * * * * * * //

dimensions      [0 1 -1 0 0 0 0];

internalField   nonuniform List<vector> 
500
(
(1.85001 -3.4553e-10 3.40817e-10)
(3.33086 -3.31618e-10 3.29039e-10)
(4.98262 -3.52592e-10 3.50002e-10)
(6.73702 -3.55469e-10 3.53565e-10)
(8.53238 -3.3337e-10 3.31217e-10)
(10.3476 -3.35099e-10 3.32643e-10)
(12.1737 -3.32887e-10 3.3028e-10)
(14.0066 -3.28787e-10 3.26433e-10)
(15.844 -3.13867e-10 3.11555e-10)
(17.6843 -2.92588e-10 2.90211e-10)
(19.5269 -2.72931e-10 2.71102e-10)
(21.3711 -2.55029e-10 2.53331e-10)
(23.2166 -2.40636e-10 2.39558e-10)
(25.0631 -2.23921e-10 2.23277e-10)
(26.9104 -2.06996e-10 2.06718e-10)
(28.7583 -1.90116e-10 1.90133e-10)
(30.6068 -1.75217e-10 1.75214e-10)
(32.4557 -1.67423e-10 1.6741e-10)
(34.3051 -1.60035e-10 1.60027e-10)
(36.1547 -1.57388e-10 1.5741e-10)
(38.0047 -1.56194e-10 1.56191e-10)
(39.8549 -1.55228e-10 1.5523e-10)
(41.7054 -1.53707e-10 1.53701e-10)
(43.556 -1.53341e-10 1.53342e-10)
(45.4069 -1.51638e-10 1.5164e-10)
(47.2579 -1.47772e-10 1.47776e-10)
(49.1091 -1.4372e-10 1.43717e-10)
(50.9604 -1.41389e-10 1.41397e-10)
(52.8119 -1.35479e-10 1.3548e-10)
(54.6635 -1.30559e-10 1.30561e-10)
(56.5153 -1.2628e-10 1.26282e-10)
(58.3671 -1.22278e-10 1.2228e-10)
(60.2191 -1.16411e-10 1.16403e-10)
(62.0712 -1.10589e-10 1.1059e-10)
(63.9233 -1.05971e-10 1.05972e-10)
(65.7756 -1.01591e-10 1.01591e-10)
(67.628 -9.749e-11 9.74672e-11)
(69.4805 -9.36143e-11 9.36e-11)
(71.3331 -8.97123e-11 8.97123e-11)
(73.1858 -8.61923e-11 8.61923e-11)
(75.0385 -8.16085e-11 8.16085e-11)
(76.8914 -7.66634e-11 7.66634e-11)
(78.7444 -7.14644e-11 7.14644e-11)
(80.5974 -6.69277e-11 6.69277e-11)
(82.4506 -6.22833e-11 6.22833e-11)
(84.3038 -5.76205e-11 5.76205e-11)
(86.1572 -5.1834e-11 5.1834e-11)
(88.0106 -4.64957e-11 4.64957e-11)
(89.8642 -4.02021e-11 4.02021e-11)
(91.7178 -3.50586e-11 3.50586e-11)
(93.5716 -3.04004e-11 3.04004e-11)
(95.4254 -2.57338e-11 2.57338e-11)
(97.2794 -2.08852e-11 2.08852e-11)
(99.1334 -1.68217e-11 1.68217e-11)
(100.988 -1.23659e-11 1.23659e-11)
(102.842 -8.34749e-12 8.34749e-12)
(104.696 -4.9406e-12 4.9406e-12)
(106.551 -2.14568e-12 2.14568e-12)
(108.405 4.05721e-13 -4.05721e-13)
(110.26 2.78636e-12 -2.78636e-12)
(112.115 3.70495e-12 -3.70495e-12)
(113.97 4.80438e-12 -4.80438e-12)
(115.825 5.45532e-12 -5.45532e-12)
(117.68 5.68901e-12 -5.68901e-12)
(119.536 5.52522e-12 -5.52522e-12)
(121.391 5.26192e-12 -5.26192e-12)
(123.247 5.29003e-12 -5.29003e-12)
(125.102 5.68046e-12 -5.68046e-12)
(126.958 5.03138e-12 -5.03138e-12)
(128.814 4.65322e-12 -4.65322e-12)
(130.671 4.48182e-12 -4.48182e-12)
(132.527 4.3366e-12 -4.3366e-12)
(134.384 4.16297e-12 -4.16297e-12)
(136.24 4.22499e-12 -4.22499e-12)
(138.097 4.28019e-12 -4.28024e-12)
(139.954 4.56109e-12 -4.56134e-12)
(141.811 4.07398e-12 -4.07258e-12)
(143.669 3.71216e-12 -3.71213e-12)
(145.526 3.52592e-12 -3.52616e-12)
(147.384 3.34345e-12 -3.34123e-12)
(149.242 3.28572e-12 -3.26152e-12)
(151.101 3.04414e-12 -2.99694e-12)
(152.959 2.73529e-12 -2.66527e-12)
(154.818 1.82371e-12 -1.7284e-12)
(156.677 7.19737e-13 -5.99071e-13)
(158.536 -5.73426e-13 6.61401e-13)
(160.395 -1.31906e-12 1.37284e-12)
(162.255 -2.05764e-12 2.08628e-12)
(164.115 -2.28534e-12 2.29058e-12)
(165.975 -2.43619e-12 2.44127e-12)
(167.835 -2.71626e-12 2.73582e-12)
(169.696 -2.53635e-12 2.5697e-12)
(171.557 -2.42575e-12 2.55845e-12)
(173.418 -2.40753e-12 2.53191e-12)
(175.28 -1.96892e-12 2.08412e-12)
(177.142 -1.61307e-12 1.618e-12)
(179.004 -1.3877e-12 1.28353e-12)
(180.867 -1.07894e-12 1.07715e-12)
(182.73 -7.86073e-13 7.96256e-13)
(184.593 -3.85609e-13 4.09907e-13)
(186.457 -3.32876e-13 3.71346e-13)
(188.321 -2.27041e-13 2.76909e-13)
(190.186 -6.20198e-14 7.05954e-14)
(192.051 0 -1.18669e-13)
(193.916 1.37803e-13 -4.17367e-13)
(195.782 4.83461e-13 -7.31712e-13)
(197.648 6.43667e-13 -8.61471e-13)
(199.515 1.00114e-12 -1.18743e-12)
(201.382 1.19092e-12 -1.34535e-12)
(203.25 1.57005e-12 -1.69181e-12)
(205.118 2.1428e-12 -2.23105e-12)
(206.987 2.90571e-12 -2.96902e-12)
(208.856 3.21923e-12 -3.25746e-12)
(210.726 3.43985e-12 -3.46565e-12)
(212.597 3.83894e-12 -3.85214e-12)
(214.468 3.82301e-12 -3.82314e-12)
(216.34 3.3861e-12 -3.37146e-12)
(218.213 3.00733e-12 -3.03015e-12)
(220.086 2.75611e-12 -2.73761e-12)
(221.96 2.40114e-12 -2.39189e-12)
(223.835 2.428e-12 -2.42813e-12)
(225.711 2.50281e-12 -2.50255e-12)
(227.587 2.22743e-12 -2.22693e-12)
(229.464 2.0228e-12 -2.02222e-12)
(231.342 1.8345e-12 -1.83477e-12)
(233.221 1.7354e-12 -1.73553e-12)
(235.101 1.52988e-12 -1.53033e-12)
(236.982 1.21199e-12 -1.21208e-12)
(238.864 8.41366e-13 -8.41638e-13)
(240.747 5.21174e-13 -5.21583e-13)
(242.631 2.74611e-13 -2.74708e-13)
(244.516 1.03133e-13 -1.02999e-13)
(246.402 -5.85548e-15 5.84384e-15)
(248.29 -1.99316e-13 1.99312e-13)
(250.178 -3.27539e-13 3.27537e-13)
(252.068 -2.65591e-13 2.65589e-13)
(253.96 -1.15904e-13 1.15903e-13)
(255.853 -1.91476e-13 1.91476e-13)
(257.747 -1.99961e-13 1.99961e-13)
(259.643 -1.99294e-13 1.99294e-13)
(261.54 -1.98737e-13 1.98737e-13)
(263.439 -1.9754e-13 1.9754e-13)
(265.34 -2.26766e-13 2.26766e-13)
(267.242 -1.94868e-13 1.94868e-13)
(269.147 -1.93181e-13 1.93181e-13)
(271.053 -1.69264e-13 1.69264e-13)
(272.961 -2.06442e-13 2.06442e-13)
(274.871 -1.91462e-13 1.91462e-13)
(276.784 -1.36e-13 1.35999e-13)
(278.698 -1.47579e-14 1.47539e-14)
(280.615 -4.16274e-14 4.17815e-14)
(282.535 -1.10935e-13 1.11082e-13)
(284.457 -3.35385e-14 3.36784e-14)
(286.381 6.48222e-15 -6.34893e-15)
(288.308 -9.77586e-14 9.78841e-14)
(290.238 -7.64349e-14 7.65525e-14)
(292.171 -9.94332e-14 9.95835e-14)
(294.107 -1.57578e-13 1.57801e-13)
(296.046 -9.41863e-14 9.43425e-14)
(297.989 -1.50798e-13 1.51027e-13)
(299.934 -1.80698e-13 1.80816e-13)
(301.884 -1.76919e-13 1.76951e-13)
(303.837 -1.34213e-13 1.3428e-13)
(305.794 -2.03292e-13 2.03286e-13)
(307.755 -1.76448e-13 1.76475e-13)
(309.72 -1.75491e-13 1.75469e-13)
(311.69 -1.672e-13 1.67172e-13)
(313.664 -1.22887e-13 1.22849e-13)
(315.642 -1.73644e-13 1.73606e-13)
(317.626 -2.1176e-13 2.11759e-13)
(319.615 -2.33068e-13 2.33008e-13)
(321.609 -2.9949e-13 2.99374e-13)
(323.608 -3.64066e-13 3.63827e-13)
(325.613 -4.28767e-13 4.285e-13)
(327.625 -4.96795e-13 4.96477e-13)
(329.642 -5.12439e-13 5.12095e-13)
(331.666 -4.57989e-13 4.57538e-13)
(333.696 -4.12202e-13 4.11862e-13)
(335.734 -3.81946e-13 3.81704e-13)
(337.779 -2.65496e-13 2.65351e-13)
(339.831 -1.82829e-13 1.82867e-13)
(341.891 -1.44529e-13 1.44873e-13)
(343.959 -1.02337e-13 1.02651e-13)
(346.036 -6.55761e-14 6.58158e-14)
(348.122 -3.49721e-14 3.51452e-14)
(350.216 -1.21051e-14 1.22036e-14)
(352.321 0 0)
(354.435 0 0)
(356.559 0 0)
(358.694 7.58469e-15 -7.58469e-15)
(360.841 4.1941e-14 -4.1941e-14)
(362.998 3.75107e-14 -3.75107e-14)
(365.168 1.92591e-14 -1.92591e-14)
(367.35 2.14619e-15 -2.14619e-15)
(369.545 1.54171e-14 -1.54171e-14)
(371.754 0 0)
(373.976 -2.46512e-14 2.46512e-14)
(376.213 -3.22096e-14 3.22096e-14)
(378.465 -1.03877e-14 1.03877e-14)
(380.733 2.97182e-14 -2.97365e-14)
(383.016 7.10803e-14 -7.10947e-14)
(385.316 7.8486e-14 -7.84723e-14)
(387.634 6.2297e-14 -6.2195e-14)
(389.97 3.88532e-14 -3.87496e-14)
(392.324 1.69508e-14 -1.6835e-14)
(394.698 5.84292e-15 -5.72935e-15)
(397.091 1.53033e-14 -1.51945e-14)
(399.506 4.43631e-15 -4.32916e-15)
(401.942 1.26309e-14 -1.25311e-14)
(404.4 4.88005e-16 -3.94371e-16)
(406.881 -1.14491e-15 1.22353e-15)
(409.386 -6.01635e-15 6.04984e-15)
(411.915 -2.36611e-14 2.37023e-14)
(414.47 -3.852e-14 3.85549e-14)
(417.051 -7.73262e-14 7.736e-14)
(419.659 -9.51845e-14 9.51863e-14)
(422.296 -1.00415e-13 1.00412e-13)
(424.961 -9.45667e-14 9.45575e-14)
(427.656 -9.16028e-14 9.16481e-14)
(430.382 -7.75298e-14 7.75624e-14)
(433.14 -6.44515e-14 6.4483e-14)
(435.931 -5.23775e-14 5.23948e-14)
(438.755 -4.12639e-14 4.1275e-14)
(441.614 -3.0345e-14 3.0345e-14)
(444.509 -2.02491e-14 2.02491e-14)
(447.441 -1.54952e-14 1.54952e-14)
(450.411 -2.72104e-14 2.72104e-14)
(453.42 -4.48426e-14 4.48426e-14)
(456.468 -3.64526e-14 3.64526e-14)
(459.558 -3.56136e-14 3.56136e-14)
(462.69 -6.35283e-14 6.35283e-14)
(465.865 -5.58718e-14 5.58718e-14)
(469.085 -5.85494e-14 5.85494e-14)
(472.35 -5.16599e-14 5.16599e-14)
(475.661 -5.55613e-14 5.55613e-14)
(479.02 -5.73657e-14 5.73657e-14)
(482.427 -5.0554e-14 5.0554e-14)
(485.884 -5.21142e-14 5.21142e-14)
(489.392 -4.47606e-14 4.47606e-14)
(492.951 -4.01032e-14 4.01032e-14)
(496.563 -4.98705e-14 4.98705e-14)
(500.228 -5.21522e-14 5.21522e-14)
(503.948 -5.34844e-14 5.34844e-14)
(507.723 -3.72301e-14 3.72301e-14)
(511.554 -1.54203e-14 1.54203e-14)
(515.442 2.14391e-15 -2.14391e-15)
(519.388 -3.90709e-15 3.90709e-15)
(523.392 7.63239e-16 -7.63239e-16)
(527.455 1.48891e-14 -1.48891e-14)
(531.578 4.13146e-15 -4.13146e-15)
(535.761 -3.49516e-16 3.49516e-16)
(540.004 4.08164e-15 -4.08164e-15)
(544.307 1.79822e-15 -1.79822e-15)
(548.672 1.04899e-15 -1.04899e-15)
(553.097 0 -1.90238e-34)
(557.583 0 2.12421e-34)
(562.13 -9.91995e-16 9.91995e-16)
(566.735 -1.39393e-14 1.39393e-14)
(571.399 -9.14102e-15 9.14102e-15)
(576.121 -4.79976e-15 4.79976e-15)
(580.908 -1.38651e-15 1.38651e-15)
(585.747 0 0)
(590.633 7.26305e-16 -7.26305e-16)
(595.557 1.75188e-15 -1.75188e-15)
(600.51 1.12334e-14 -1.12334e-14)
(605.471 7.68895e-15 -7.68895e-15)
(610.415 1.60603e-14 -1.60603e-14)
(615.298 1.25734e-14 -1.25734e-14)
(620.052 1.17964e-14 -1.17964e-14)
(624.568 9.6726e-15 -9.6726e-15)
(628.673 7.44732e-15 -7.44732e-15)
(632.087 5.18242e-15 -5.18242e-15)
(634.357 3.21669e-15 -3.21669e-15)
(634.745 1.9315e-15 -1.9315e-15)
(632.048 3.41592e-16 -3.41592e-16)
(624.302 -4.57257e-15 4.57257e-15)
(608.313 -2.48217e-15 2.48217e-15)
(578.985 -4.80183e-16 4.80183e-16)
(528.599 0 -4.80387e-36)
(447.641 0 2.92289e-36)
(330.15 0 -4.97718e-38)
(189.455 6.39744e-16 -6.39744e-16)
(72.6001 3.41788e-15 -3.41788e-15)
(17.8784 0 0)
(3.43424 -4.40903e-15 4.40903e-15)
(0.613256 -9.34132e-16 9.34132e-16)
(0.107506 0 0)
(0.0186992 0 0)
(0.00323322 -2.71624e-15 2.71624e-15)
(0.000555948 0 0)
(9.50748e-05 0 0)
(1.61716e-05 1.7809e-15 -1.7809e-15)
(2.73604e-06 -1.75782e-15 1.75782e-15)
(4.60459e-07 0 0)
(7.70922e-08 0 0)
(1.28486e-08 1.73071e-15 -1.73071e-15)
(2.14065e-09 -1.7101e-15 1.7101e-15)
(3.63538e-10 0 0)
(6.83839e-11 0 0)
(1.58276e-11 0 0)
(-4.6203e-12 -2.50652e-15 2.50652e-15)
(-1.00305e-11 -5.20493e-18 5.20493e-18)
(1.27784e-12 -2.47269e-15 2.47269e-15)
(6.52952e-12 0 0)
(-9.72811e-13 2.43856e-15 -2.43856e-15)
(-5.55411e-12 0 0)
(-8.92761e-12 0 0)
(-1.57111e-11 0 0)
(-1.21892e-11 -4.74862e-15 4.74862e-15)
(-1.6843e-11 -4.73559e-15 4.73559e-15)
(-2.50267e-11 -1.60424e-17 1.60424e-17)
(-3.49518e-11 0 0)
(-2.8709e-11 0 0)
(-5.30147e-12 0 0)
(7.66163e-12 2.28358e-15 -2.28358e-15)
(1.02135e-11 0 0)
(5.69219e-12 0 0)
(2.5552e-11 -3.86027e-16 3.86027e-16)
(4.03797e-11 -5.23968e-15 5.23968e-15)
(2.76268e-11 -1.45049e-14 1.45049e-14)
(6.78471e-13 -1.92967e-14 1.92967e-14)
(-7.39591e-12 -1.96675e-14 1.96675e-14)
(9.86981e-12 -1.56786e-14 1.56786e-14)
(2.01314e-11 -1.60435e-14 1.60435e-14)
(1.61245e-11 -1.20974e-14 1.20974e-14)
(2.67054e-12 -3.89793e-15 3.89793e-15)
(-3.37789e-12 0 0)
(-7.79046e-12 0 0)
(-1.01847e-11 2.09517e-15 -2.09517e-15)
(-2.97269e-12 0 0)
(8.34119e-12 0 0)
(1.67203e-11 0 0)
(2.00602e-11 0 0)
(1.01377e-11 -4.06526e-15 4.06526e-15)
(-4.79934e-12 -4.05364e-15 4.05364e-15)
(-1.40527e-11 -1.27789e-17 1.27789e-17)
(-1.61064e-11 0 0)
(-2.45518e-11 0 0)
(-2.70287e-11 0 0)
(-2.46813e-11 0 0)
(-3.19911e-11 0 0)
(-1.61599e-11 -1.93851e-15 1.93851e-15)
(-1.93356e-12 0 0)
(-1.03514e-11 0 0)
(-1.50644e-11 1.90629e-15 -1.90629e-15)
(5.14904e-12 2.80426e-18 -2.80426e-18)
(1.79989e-11 1.88457e-15 -1.88457e-15)
(8.52054e-12 0 0)
(-4.28911e-12 -3.09488e-15 3.09488e-15)
(-6.78311e-12 -2.46339e-15 2.46339e-15)
(2.46885e-12 -5.52355e-15 5.52355e-15)
(3.65041e-12 -4.89524e-15 4.89524e-15)
(9.81182e-12 -6.2244e-16 6.2244e-16)
(1.54367e-11 0 0)
(1.23437e-11 0 0)
(2.90115e-12 1.78886e-15 -1.78886e-15)
(-3.41473e-12 0 0)
(-7.246e-13 -4.24295e-15 4.24295e-15)
(-9.76768e-13 -4.93478e-15 4.93478e-15)
(-6.45399e-12 -2.11276e-15 2.11276e-15)
(-1.65386e-11 -2.79296e-15 2.79296e-15)
(-2.1525e-11 0 0)
(-1.56564e-11 0 0)
(5.96521e-12 -1.71196e-15 1.71196e-15)
(8.78719e-12 -1.06817e-18 1.06817e-18)
(8.74357e-12 -1.69332e-15 1.69332e-15)
(1.3187e-11 0 0)
(-8.7006e-12 1.67264e-15 -1.67264e-15)
(-2.8757e-11 0 0)
(-2.04606e-11 0 0)
(-8.30242e-12 -7.97439e-16 7.97439e-16)
(-1.37465e-11 -4.87668e-15 4.87668e-15)
(-1.51873e-11 -5.66711e-15 5.66711e-15)
(-1.28429e-11 -9.69893e-15 9.69893e-15)
(-8.82775e-12 -1.04771e-14 1.04771e-14)
(-9.37011e-12 -8.03876e-15 8.03876e-15)
(-8.46389e-12 -2.41559e-15 2.41559e-15)
(-5.35419e-12 0 0)
(-1.18154e-11 0 0)
(-9.47254e-12 1.56978e-15 -1.56978e-15)
(-1.52265e-11 2.71733e-18 -2.71733e-18)
(-2.8403e-11 1.55466e-15 -1.55466e-15)
(-2.63381e-11 0 0)
(-1.29454e-11 0 0)
(3.45332e-12 -1.52911e-15 1.52911e-15)
(4.46772e-12 0 0)
(-1.7674e-13 0 0)
(5.82044e-12 0 0)
(1.54222e-11 2.99661e-15 -2.99661e-15)
(1.10736e-11 2.98907e-15 -2.98907e-15)
(9.18558e-12 8.73602e-18 -8.73602e-18)
(1.9772e-11 0 0)
(1.11792e-11 0 0)
(-1.42254e-12 1.45889e-15 -1.45889e-15)
(-7.23371e-12 0 0)
(-1.61727e-12 0 0)
(1.14456e-11 0 0)
(1.38056e-11 0 0)
(3.48584e-12 0 0)
(-6.31079e-12 0 0)
(-1.6805e-12 0 0)
(2.96988e-12 0 0)
(1.35474e-11 5.97441e-16 -5.97441e-16)
(3.27487e-11 3.97407e-15 -3.97407e-15)
(3.22402e-11 1.01029e-14 -1.01029e-14)
(1.93513e-11 1.34435e-14 -1.34435e-14)
(1.20295e-11 1.40273e-14 -1.40273e-14)
(6.82792e-12 6.41929e-15 -6.41929e-15)
(-5.34558e-12 1.56298e-15 -1.56298e-15)
(-1.73854e-11 -5.67755e-16 5.67755e-16)
(-1.73931e-11 0 0)
(-1.31235e-11 0 0)
(-6.01228e-12 0 0)
(-2.7321e-12 0 0)
(5.85971e-12 0 0)
(1.65304e-11 0 0)
(1.95849e-11 0 0)
(1.50941e-11 0 0)
(1.22517e-11 -8.63341e-16 8.63341e-16)
(2.55689e-11 8.53896e-16 -8.53896e-16)
(3.56025e-11 0 0)
(3.56352e-11 0 0)
(2.18652e-11 -1.26743e-15 1.26743e-15)
(9.44963e-12 -1.79693e-18 1.79693e-18)
(1.97187e-12 -1.25628e-15 1.25628e-15)
(-4.03611e-12 -1.53986e-18 1.53986e-18)
(-5.8159e-12 -1.24359e-15 1.24359e-15)
(-1.14618e-11 0 0)
(-1.71592e-11 -8.23223e-16 8.23223e-16)
(-1.79747e-11 8.14939e-16 -8.14939e-16)
(-9.33168e-12 0 0)
(-2.09271e-11 1.21359e-15 -1.21359e-15)
(-2.14447e-11 -1.88175e-18 1.88175e-18)
(-5.59464e-12 1.20259e-15 -1.20259e-15)
(7.82783e-12 0 0)
(1.82511e-11 7.96168e-16 -7.96168e-16)
(2.12407e-11 -7.89788e-16 7.89788e-16)
(4.19574e-12 0 0)
(-9.7301e-12 -9.22231e-16 9.22231e-16)
(-2.96366e-12 -4.1856e-15 4.1856e-15)
(-3.62472e-12 -9.7684e-15 9.7684e-15)
(-1.56886e-11 -8.35121e-15 8.35121e-15)
(-2.31348e-11 0 0)
(-2.6536e-11 8.27227e-15 -8.27227e-15)
(-1.97246e-11 9.62851e-15 -9.62851e-15)
(-6.79886e-12 4.1287e-15 -4.1287e-15)
(-3.12074e-12 9.26006e-16 -9.26006e-16)
(1.72153e-11 0 0)
(4.63206e-11 9.53667e-16 -9.53667e-16)
(4.75618e-11 4.14436e-15 -4.14436e-15)
(2.38293e-11 6.24716e-16 -6.24716e-16)
(2.40139e-11 -1.80293e-15 1.80293e-15)
(2.8884e-11 -6.43058e-15 6.43058e-15)
(1.82253e-11 -4.43022e-15 4.43022e-15)
(8.72797e-12 -4.63086e-15 4.63086e-15)
(-1.01095e-13 -7.01338e-15 7.01338e-15)
(8.21206e-13 -1.15593e-14 1.15593e-14)
(-7.49154e-14 -1.82487e-14 1.82487e-14)
(-5.4326e-12 -2.70633e-14 2.70633e-14)
(-1.05748e-11 -2.95702e-14 2.95702e-14)
(-1.26324e-11 -2.88848e-14 2.88848e-14)
(-1.17503e-11 -2.58715e-14 2.58715e-14)
(-1.95082e-11 -1.64454e-14 1.64454e-14)
(-2.04688e-11 -9.1568e-15 9.1568e-15)
(-1.0671e-11 -3.99863e-15 3.99863e-15)
(-1.12599e-11 -9.51999e-16 9.51999e-16)
(9.99229e-13 0 0)
(2.70516e-11 0 0)
(1.54697e-11 0 0)
(-4.8343e-12 0 0)
(-1.19727e-11 0 0)
(-4.33264e-12 6.73757e-16 -6.73757e-16)
(1.03255e-11 3.28875e-15 -3.28875e-15)
(1.24773e-13 -1.70447e-16 1.70447e-16)
(-1.46888e-11 -5.62461e-15 5.62461e-15)
(-5.20948e-12 -5.04451e-15 5.04451e-15)
(1.57642e-11 -6.46133e-15 6.46133e-15)
(2.59821e-11 -1.91121e-15 1.91121e-15)
(1.5968e-11 6.41744e-16 -6.41744e-16)
(-1.48516e-11 3.70504e-15 -3.70504e-15)
(-4.10251e-11 8.70948e-16 -8.70948e-16)
(-4.13514e-11 0 0)
(-2.62823e-11 0 0)
(-2.51719e-11 -3.41019e-16 3.41019e-16)
(-3.04497e-11 -2.60977e-15 2.60977e-15)
(-1.06821e-11 -6.78993e-15 6.78993e-15)
(1.06034e-11 -5.21133e-15 5.21133e-15)
(1.19633e-11 -9.35784e-15 9.35784e-15)
(-3.40573e-12 -1.53836e-14 1.53836e-14)
(-1.9749e-11 -2.31977e-14 2.31977e-14)
(-1.59001e-11 -2.53308e-14 2.53308e-14)
(-3.7692e-12 -2.35383e-14 2.35383e-14)
(7.90142e-12 -1.61462e-14 1.61462e-14)
(1.45733e-11 -1.05699e-14 1.05699e-14)
(1.65351e-11 -6.86811e-15 6.86811e-15)
(3.06636e-11 -5.02586e-15 5.02586e-15)
(3.23958e-11 -5.02812e-15 5.02812e-15)
(2.14614e-11 -6.8594e-15 6.8594e-15)
(4.68561e-12 -3.21592e-15 3.21592e-15)
(-1.18564e-11 -1.40092e-15 1.40092e-15)
)
;

boundaryField
{
    wedge0
    {
        type            wedge;
    }
    wedge1
    {
        type            wedge;
    }
    wedge2
    {
        type            wedge;
    }
    wedge3
    {
        type            wedge;
    }
    outlet
    {
        type            zeroGradient;
    }
    defaultFaces
    {
        type            empty;
    }
}


// ************************************************************************* //
