/*--------------------------------*- C++ -*----------------------------------*\
| =========                 |                                                 |
| \\      /  F ield         | OpenFOAM: The Open Source CFD Toolbox           |
|  \\    /   O peration     | Version:  2312                                  |
|   \\  /    A nd           | Website:  www.openfoam.com                      |
|    \\/     M anipulation  |                                                 |
\*---------------------------------------------------------------------------*/
FoamFile
{
    version     2.0;
    format      ascii;
    arch        "LSB;label=32;scalar=64";
    class       volScalarField;
    location    "0.058";
    object      rho;
}
// * * * * * * * * * * * * * * * * * * * * * * * * * * * * * * * * * * * * * //

dimensions      [1 -3 0 0 0 0 0];

internalField   nonuniform List<scalar> 
100
(
0.450249
0.449294
0.447863
0.44647
0.444978
0.443602
0.442089
0.440734
0.439222
0.437866
0.436391
0.434983
0.433592
0.432068
0.430801
0.4291
0.427973
0.426057
0.425049
0.422918
0.421961
0.419671
0.418646
0.416317
0.41507
0.412867
0.411262
0.40933
0.407321
0.405727
0.403399
0.402102
0.399655
0.398538
0.396204
0.395155
0.393108
0.392078
0.390395
0.389402
0.388077
0.387178
0.386166
0.385415
0.384671
0.384101
0.383591
0.383216
0.38292
0.382738
0.38264
0.382643
0.382729
0.382906
0.38316
0.383495
0.383902
0.384381
0.384926
0.385543
0.386234
0.387018
0.387931
0.389052
0.390532
0.392658
0.395931
0.401126
0.409178
0.420749
0.435549
0.45205
0.468087
0.48188
0.492673
0.500622
0.506342
0.510501
0.513637
0.51612
0.518181
0.519961
0.521541
0.522971
0.524277
0.52548
0.52659
0.52762
0.528576
0.52947
0.530304
0.531089
0.531828
0.532525
0.533185
0.533807
0.534395
0.534946
0.535466
0.535824
)
;

boundaryField
{
    sides
    {
        type            zeroGradient;
    }
    empty
    {
        type            empty;
    }
}


// ************************************************************************* //
