/*--------------------------------*- C++ -*----------------------------------*\
| =========                 |                                                 |
| \\      /  F ield         | OpenFOAM: The Open Source CFD Toolbox           |
|  \\    /   O peration     | Version:  2312                                  |
|   \\  /    A nd           | Website:  www.openfoam.com                      |
|    \\/     M anipulation  |                                                 |
\*---------------------------------------------------------------------------*/
FoamFile
{
    version     2.0;
    format      ascii;
    arch        "LSB;label=32;scalar=64";
    class       volVectorField;
    location    "0.058";
    object      U;
}
// * * * * * * * * * * * * * * * * * * * * * * * * * * * * * * * * * * * * * //

dimensions      [0 1 -1 0 0 0 0];

internalField   nonuniform List<vector> 
100
(
(175.977 0 0)
(177.058 0 0)
(178.482 0 0)
(179.824 0 0)
(181.291 0 0)
(182.614 0 0)
(184.1 0 0)
(185.415 0 0)
(186.892 0 0)
(188.234 0 0)
(189.655 0 0)
(191.072 0 0)
(192.38 0 0)
(193.924 0 0)
(195.071 0 0)
(196.775 0 0)
(197.738 0 0)
(199.602 0 0)
(200.398 0 0)
(202.378 0 0)
(203.072 0 0)
(205.071 0 0)
(205.782 0 0)
(207.66 0 0)
(208.537 0 0)
(210.147 0 0)
(211.318 0 0)
(212.568 0 0)
(214.076 0 0)
(214.978 0 0)
(216.749 0 0)
(217.42 0 0)
(219.293 0 0)
(219.897 0 0)
(221.702 0 0)
(222.37 0 0)
(223.995 0 0)
(224.781 0 0)
(226.193 0 0)
(227.078 0 0)
(228.3 0 0)
(229.227 0 0)
(230.3 0 0)
(231.212 0 0)
(232.166 0 0)
(233.023 0 0)
(233.873 0 0)
(234.652 0 0)
(235.403 0 0)
(236.094 0 0)
(236.749 0 0)
(237.35 0 0)
(237.913 0 0)
(238.428 0 0)
(238.906 0 0)
(239.344 0 0)
(239.749 0 0)
(240.12 0 0)
(240.462 0 0)
(240.771 0 0)
(241.046 0 0)
(241.27 0 0)
(241.415 0 0)
(241.418 0 0)
(241.157 0 0)
(240.407 0 0)
(238.79 0 0)
(235.762 0 0)
(230.749 0 0)
(223.491 0 0)
(214.44 0 0)
(204.782 0 0)
(195.902 0 0)
(188.773 0 0)
(183.68 0 0)
(180.395 0 0)
(178.469 0 0)
(177.466 0 0)
(177.047 0 0)
(176.984 0 0)
(177.135 0 0)
(177.408 0 0)
(177.756 0 0)
(178.145 0 0)
(178.56 0 0)
(178.989 0 0)
(179.428 0 0)
(179.87 0 0)
(180.316 0 0)
(180.762 0 0)
(181.209 0 0)
(181.655 0 0)
(182.101 0 0)
(182.546 0 0)
(182.991 0 0)
(183.437 0 0)
(183.884 0 0)
(184.334 0 0)
(184.786 0 0)
(185.16 0 0)
)
;

boundaryField
{
    sides
    {
        type            mywaveTransmissive;
        gamma           1.4;
        value           nonuniform List<vector> 2((185.324 0 0) (175.477 0 0));
    }
    empty
    {
        type            empty;
    }
}


// ************************************************************************* //
