/*--------------------------------*- C++ -*----------------------------------*\
| =========                 |                                                 |
| \\      /  F ield         | OpenFOAM: The Open Source CFD Toolbox           |
|  \\    /   O peration     | Version:  2312                                  |
|   \\  /    A nd           | Website:  www.openfoam.com                      |
|    \\/     M anipulation  |                                                 |
\*---------------------------------------------------------------------------*/
FoamFile
{
    version     2.0;
    format      ascii;
    arch        "LSB;label=32;scalar=64";
    class       volScalarField;
    location    "0.009";
    object      p;
}
// * * * * * * * * * * * * * * * * * * * * * * * * * * * * * * * * * * * * * //

dimensions      [1 -1 -2 0 0 0 0];

internalField   nonuniform List<scalar> 
100
(
100207
100207
100207
100207
100207
100207
100207
100207
100206
100205
100202
100194
100175
100127
100023
99806.2
99390.5
98657.1
97474.3
95737.7
93418.3
90587.2
87394.1
84005
80586.7
77327.2
74252.6
71346.6
68579.2
65934.9
63402.1
60971.6
58637.5
56394.1
54236.8
52161.5
50164.5
48242.1
46390.7
44607
42887.9
41231.8
39638.3
38108.7
36645.3
35254.2
33938.2
32735.9
31556.7
30502.2
29750.3
29003.1
28311.4
28148.9
28179.7
28144.5
28352.1
28328.4
28355.3
28448.1
28529.1
28565.6
28555.8
28481.6
28454.6
28447.3
28489.2
28532.4
28562.1
28577.2
28535.4
28474.4
28492.6
28504
28667.9
28243.1
29080.4
27973.8
28928.6
28416.1
28625.5
28509.8
28563.4
28556.5
28569.1
28569.1
28561
28556
28558.9
28559.7
28575.4
28572.4
28578.1
28588.4
28591.9
28609.1
28595.9
28502.1
27944.7
24300.1
)
;

boundaryField
{
    sides
    {
        type            zeroGradient;
    }
    empty
    {
        type            empty;
    }
}


// ************************************************************************* //
