/*--------------------------------*- C++ -*----------------------------------*\
| =========                 |                                                 |
| \\      /  F ield         | OpenFOAM: The Open Source CFD Toolbox           |
|  \\    /   O peration     | Version:  2312                                  |
|   \\  /    A nd           | Website:  www.openfoam.com                      |
|    \\/     M anipulation  |                                                 |
\*---------------------------------------------------------------------------*/
FoamFile
{
    version     2.0;
    format      ascii;
    arch        "LSB;label=32;scalar=64";
    class       volScalarField;
    location    "0.009";
    object      rho;
}
// * * * * * * * * * * * * * * * * * * * * * * * * * * * * * * * * * * * * * //

dimensions      [1 -3 0 0 0 0 0];

internalField   nonuniform List<scalar> 
100
(
1.16102
1.16102
1.16102
1.16102
1.16102
1.16102
1.16102
1.16102
1.16102
1.16101
1.16098
1.16092
1.16075
1.16036
1.1595
1.1577
1.15426
1.14817
1.13832
1.1238
1.1043
1.08032
1.05302
1.02372
0.993804
0.964957
0.937438
0.911122
0.885772
0.861272
0.837536
0.814502
0.792129
0.770385
0.749238
0.728667
0.708648
0.68916
0.67018
0.651685
0.63366
0.616098
0.599006
0.582413
0.566359
0.550933
0.536176
0.522553
0.50907
0.496882
0.488
0.478944
0.471172
0.469594
0.469871
0.469068
0.471186
0.471045
0.47176
0.473277
0.474249
0.474331
0.473578
0.472289
0.471973
0.472216
0.473427
0.474176
0.474292
0.473264
0.46944
0.461561
0.448451
0.426622
0.395841
0.34952
0.311739
0.269534
0.256632
0.243783
0.240277
0.237381
0.236777
0.23642
0.236418
0.236435
0.236472
0.236629
0.236905
0.237123
0.237343
0.237419
0.237528
0.237656
0.237729
0.237852
0.237771
0.237181
0.233437
0.208269
)
;

boundaryField
{
    sides
    {
        type            zeroGradient;
    }
    empty
    {
        type            empty;
    }
}


// ************************************************************************* //
