/*--------------------------------*- C++ -*----------------------------------*\
| =========                 |                                                 |
| \\      /  F ield         | OpenFOAM: The Open Source CFD Toolbox           |
|  \\    /   O peration     | Version:  2312                                  |
|   \\  /    A nd           | Website:  www.openfoam.com                      |
|    \\/     M anipulation  |                                                 |
\*---------------------------------------------------------------------------*/
FoamFile
{
    version     2.0;
    format      ascii;
    arch        "LSB;label=32;scalar=64";
    class       volScalarField;
    location    "0.009";
    object      T;
}
// * * * * * * * * * * * * * * * * * * * * * * * * * * * * * * * * * * * * * //

dimensions      [0 0 0 1 0 0 0];

internalField   nonuniform List<scalar> 
100
(
300
300
300
300
300
300
300
300
300
299.999
299.996
299.989
299.972
299.932
299.842
299.657
299.3
298.667
297.639
296.113
294.041
291.459
288.476
285.226
281.855
278.54
275.317
272.182
269.112
266.096
263.126
260.195
257.302
254.442
251.615
248.819
246.053
243.315
240.604
237.918
235.257
232.62
230.01
227.435
224.9
222.421
220.011
217.75
215.465
213.374
211.902
210.486
208.855
208.355
208.459
208.555
209.149
209.037
208.918
208.93
209.096
209.327
209.588
209.614
209.556
209.394
209.166
209.152
209.318
209.884
211.284
214.432
220.841
232.234
251.732
280.869
324.244
360.745
391.814
405.158
414.1
417.457
419.308
419.841
420.029
419.998
419.813
419.462
419.016
418.644
418.484
418.306
418.198
418.123
418.045
418.081
418.03
417.696
416.094
405.551
)
;

boundaryField
{
    sides
    {
        type            zeroGradient;
    }
    empty
    {
        type            empty;
    }
}


// ************************************************************************* //
