/*--------------------------------*- C++ -*----------------------------------*\
| =========                 |                                                 |
| \\      /  F ield         | OpenFOAM: The Open Source CFD Toolbox           |
|  \\    /   O peration     | Version:  2312                                  |
|   \\  /    A nd           | Website:  www.openfoam.com                      |
|    \\/     M anipulation  |                                                 |
\*---------------------------------------------------------------------------*/
FoamFile
{
    version     2.0;
    format      ascii;
    arch        "LSB;label=32;scalar=64";
    class       volScalarField;
    location    "0.009";
    object      thermo:e;
}
// * * * * * * * * * * * * * * * * * * * * * * * * * * * * * * * * * * * * * //

dimensions      [0 2 -2 0 0 0 0];

internalField   nonuniform List<scalar> 
100
(
215760
215760
215760
215760
215760
215760
215760
215760
215760
215759
215757
215752
215740
215711
215647
215513
215256
214801
214062
212964
211474
209618
207472
205134
202710
200326
198008
195754
193546
191376
189240
187132
185051
182995
180962
178951
176961
174992
173043
171111
169197
167300
165423
163571
161748
159965
158232
156606
154963
153458
152400
151381
150208
149849
149924
149993
150420
150339
150254
150262
150382
150548
150736
150754
150712
150596
150432
150422
150542
150948
151956
154220
158829
167023
181046
202001
233196
259448
281792
291390
297821
300235
301566
301949
302085
302062
301929
301677
301356
301089
300974
300845
300768
300714
300658
300684
300647
300407
299255
291672
)
;

boundaryField
{
    sides
    {
        type            zeroGradient;
    }
    empty
    {
        type            empty;
    }
}


// ************************************************************************* //
