/*--------------------------------*- C++ -*----------------------------------*\
| =========                 |                                                 |
| \\      /  F ield         | OpenFOAM: The Open Source CFD Toolbox           |
|  \\    /   O peration     | Version:  2312                                  |
|   \\  /    A nd           | Website:  www.openfoam.com                      |
|    \\/     M anipulation  |                                                 |
\*---------------------------------------------------------------------------*/
FoamFile
{
    version     2.0;
    format      ascii;
    arch        "LSB;label=32;scalar=64";
    class       volVectorField;
    location    "0.009";
    object      U;
}
// * * * * * * * * * * * * * * * * * * * * * * * * * * * * * * * * * * * * * //

dimensions      [0 1 -1 0 0 0 0];

internalField   nonuniform List<vector> 
100
(
(4.181e-08 0 0)
(2.12313e-07 0 0)
(8.25749e-07 0 0)
(3.1504e-06 0 0)
(1.15781e-05 0 0)
(4.09538e-05 0 0)
(0.000139244 0 0)
(0.000454448 0 0)
(0.0014215 0 0)
(0.00425395 0 0)
(0.0121546 0 0)
(0.0330797 0 0)
(0.0855197 0 0)
(0.209352 0 0)
(0.483536 0 0)
(1.04958 0 0)
(2.13253 0 0)
(4.04117 0 0)
(7.12446 0 0)
(11.6769 0 0)
(17.8239 0 0)
(25.4543 0 0)
(34.2592 0 0)
(43.8862 0 0)
(53.8268 0 0)
(63.6232 0 0)
(73.2334 0 0)
(82.679 0 0)
(91.987 0 0)
(101.194 0 0)
(110.319 0 0)
(119.373 0 0)
(128.367 0 0)
(137.307 0 0)
(146.197 0 0)
(155.041 0 0)
(163.841 0 0)
(172.602 0 0)
(181.327 0 0)
(190.021 0 0)
(198.685 0 0)
(207.316 0 0)
(215.902 0 0)
(224.422 0 0)
(232.842 0 0)
(241.102 0 0)
(249.163 0 0)
(257.154 0 0)
(264.305 0 0)
(271.012 0 0)
(278.14 0 0)
(283.145 0 0)
(285.303 0 0)
(287.644 0 0)
(289.342 0 0)
(289.648 0 0)
(287.364 0 0)
(286.11 0 0)
(285.847 0 0)
(286.074 0 0)
(286.42 0 0)
(286.373 0 0)
(286.076 0 0)
(285.63 0 0)
(285.57 0 0)
(285.741 0 0)
(286.106 0 0)
(286.319 0 0)
(286.203 0 0)
(285.801 0 0)
(285.554 0 0)
(285.659 0 0)
(285.565 0 0)
(286.254 0 0)
(285.512 0 0)
(288.771 0 0)
(281.969 0 0)
(289.426 0 0)
(283.054 0 0)
(286.743 0 0)
(285.251 0 0)
(286.019 0 0)
(285.586 0 0)
(285.642 0 0)
(285.554 0 0)
(285.54 0 0)
(285.619 0 0)
(285.692 0 0)
(285.66 0 0)
(285.674 0 0)
(285.618 0 0)
(285.71 0 0)
(285.826 0 0)
(286.009 0 0)
(286.113 0 0)
(285.986 0 0)
(286.049 0 0)
(286.405 0 0)
(286.539 0 0)
(244.999 0 0)
)
;

boundaryField
{
    sides
    {
        type            zeroGradient;
    }
    empty
    {
        type            empty;
    }
}


// ************************************************************************* //
