/*--------------------------------*- C++ -*----------------------------------*\
| =========                 |                                                 |
| \\      /  F ield         | OpenFOAM: The Open Source CFD Toolbox           |
|  \\    /   O peration     | Version:  2312                                  |
|   \\  /    A nd           | Website:  www.openfoam.com                      |
|    \\/     M anipulation  |                                                 |
\*---------------------------------------------------------------------------*/
FoamFile
{
    version     2.0;
    format      ascii;
    arch        "LSB;label=32;scalar=64";
    class       volScalarField;
    location    "0.002";
    object      p;
}
// * * * * * * * * * * * * * * * * * * * * * * * * * * * * * * * * * * * * * //

dimensions      [1 -1 -2 0 0 0 0];

internalField   nonuniform List<scalar> 
100
(
100207
100207
100207
100207
100207
100207
100207
100207
100207
100207
100207
100207
100207
100207
100207
100207
100207
100207
100207
100207
100207
100207
100207
100207
100207
100207
100207
100207
100207
100207
100207
100207
100207
100207
100207
100207
100206
100200
100170
100044
99592.2
98242.6
94972
88677.8
79138.6
67584.4
56801.2
48283.3
41485.8
36051.7
32062.8
29480.1
28482.3
28199
28402.8
28189.5
28791
29542.5
30026.6
29278.2
22824.6
11982.4
10187.6
10034.5
10021.9
10020.8
10020.7
10020.7
10020.7
10020.7
10020.7
10020.7
10020.7
10020.7
10020.7
10020.7
10020.7
10020.7
10020.7
10020.7
10020.7
10020.7
10020.7
10020.7
10020.7
10020.7
10020.7
10020.7
10020.7
10020.7
10020.7
10020.7
10020.7
10020.7
10020.7
10020.7
10020.7
10020.7
10020.7
10020.7
)
;

boundaryField
{
    sides
    {
        type            zeroGradient;
    }
    empty
    {
        type            empty;
    }
}


// ************************************************************************* //
