/*--------------------------------*- C++ -*----------------------------------*\
| =========                 |                                                 |
| \\      /  F ield         | OpenFOAM: The Open Source CFD Toolbox           |
|  \\    /   O peration     | Version:  2312                                  |
|   \\  /    A nd           | Website:  www.openfoam.com                      |
|    \\/     M anipulation  |                                                 |
\*---------------------------------------------------------------------------*/
FoamFile
{
    version     2.0;
    format      ascii;
    arch        "LSB;label=32;scalar=64";
    class       volVectorField;
    location    "0.002";
    object      U;
}
// * * * * * * * * * * * * * * * * * * * * * * * * * * * * * * * * * * * * * //

dimensions      [0 1 -1 0 0 0 0];

internalField   nonuniform List<vector> 
100
(
(9.13809e-14 0 0)
(2.58388e-14 0 0)
(7.0783e-14 0 0)
(5.31314e-14 0 0)
(3.26741e-14 0 0)
(8.29632e-14 0 0)
(8.25823e-14 0 0)
(-6.87013e-15 0 0)
(-7.16984e-14 0 0)
(-6.13821e-14 0 0)
(4.5337e-15 0 0)
(-5.40063e-14 0 0)
(-1.05024e-13 0 0)
(-8.22441e-14 0 0)
(-5.50775e-14 0 0)
(-2.10618e-15 0 0)
(7.23132e-14 0 0)
(3.82102e-14 0 0)
(-6.63669e-15 0 0)
(5.21481e-14 0 0)
(2.4954e-14 0 0)
(-2.49283e-14 0 0)
(-5.91782e-14 0 0)
(-6.78726e-14 0 0)
(-4.19136e-14 0 0)
(4.9039e-15 0 0)
(1.15816e-13 0 0)
(2.55072e-12 0 0)
(4.18152e-11 0 0)
(5.97495e-10 0 0)
(7.67142e-09 0 0)
(8.84067e-08 0 0)
(9.13762e-07 0 0)
(8.46019e-06 0 0)
(7.00249e-05 0 0)
(0.000516635 0 0)
(0.00338396 0 0)
(0.0195715 0 0)
(0.0992332 0 0)
(0.436982 0 0)
(1.65214 0 0)
(5.2968 0 0)
(14.2565 0 0)
(32.1236 0 0)
(61.1454 0 0)
(100.054 0 0)
(138.335 0 0)
(174.385 0 0)
(206.914 0 0)
(236.867 0 0)
(262.571 0 0)
(278.899 0 0)
(287.638 0 0)
(288.607 0 0)
(288.163 0 0)
(292.286 0 0)
(289.368 0 0)
(298.405 0 0)
(304.111 0 0)
(296.974 0 0)
(228.254 0 0)
(47.188 0 0)
(4.35147 0 0)
(0.362152 0 0)
(0.0317002 0 0)
(0.00287031 0 0)
(0.000262273 0 0)
(2.34342e-05 0 0)
(1.99347e-06 0 0)
(1.58289e-07 0 0)
(1.1579e-08 0 0)
(7.73556e-10 0 0)
(4.68978e-11 0 0)
(2.60911e-12 0 0)
(1.61221e-13 0 0)
(-1.84506e-14 0 0)
(4.94169e-15 0 0)
(-2.27534e-15 0 0)
(-1.29106e-14 0 0)
(4.91604e-14 0 0)
(-1.19958e-14 0 0)
(7.88623e-15 0 0)
(-2.36332e-14 0 0)
(-6.46619e-14 0 0)
(5.91621e-15 0 0)
(2.13235e-14 0 0)
(-2.82501e-14 0 0)
(1.11226e-14 0 0)
(1.23949e-13 0 0)
(9.87879e-14 0 0)
(2.91585e-14 0 0)
(2.55447e-14 0 0)
(-2.50634e-15 0 0)
(5.43365e-14 0 0)
(5.83991e-14 0 0)
(9.67114e-14 0 0)
(9.85636e-14 0 0)
(8.43036e-14 0 0)
(2.61287e-14 0 0)
(-2.67162e-14 0 0)
)
;

boundaryField
{
    sides
    {
        type            zeroGradient;
    }
    empty
    {
        type            empty;
    }
}


// ************************************************************************* //
