/*--------------------------------*- C++ -*----------------------------------*\
| =========                 |                                                 |
| \\      /  F ield         | OpenFOAM: The Open Source CFD Toolbox           |
|  \\    /   O peration     | Version:  2212                                  |
|   \\  /    A nd           | Website:  www.openfoam.com                      |
|    \\/     M anipulation  |                                                 |
\*---------------------------------------------------------------------------*/
FoamFile
{
    version     2.0;
    format      ascii;
    arch        "LSB;label=32;scalar=64";
    class       volScalarField;
    location    "0.005";
    object      G;
}
// * * * * * * * * * * * * * * * * * * * * * * * * * * * * * * * * * * * * * //

dimensions      [1 0 -3 0 0 0 0];

internalField   nonuniform List<scalar> 
100
(
1815.7
1813.98
1812.09
1810.01
1807.73
1805.22
1802.48
1799.47
1796.18
1792.59
1788.66
1784.36
1779.67
1774.55
1768.96
1762.85
1756.19
1748.92
1740.99
1732.34
1722.91
1712.62
1701.42
1689.22
1675.96
1661.57
1646.02
1629.26
1611.3
1592.17
1571.97
1550.82
1528.89
1506.4
1483.62
1460.83
1438.36
1416.55
1395.74
1376.31
1358.64
1343.09
1330.04
1319.88
1312.98
1309.73
1310.51
1315.71
1325.72
1340.93
1361.76
1388.59
1421.83
1461.88
1509.14
1564
1626.83
1697.99
1777.81
1866.53
1964.28
2070.94
2186.06
2308.69
2437.18
2569.07
2700.99
2828.76
2947.69
3053.03
3140.43
3206.29
3247.92
3263.49
3252.05
3213.9
3151.65
3071.36
2981.97
2891.94
2806.29
2726.77
2653.58
2586.41
2524.82
2468.38
2416.67
2369.31
2325.93
2286.22
2249.88
2216.63
2186.23
2158.44
2133.06
2109.91
2088.79
2069.56
2052.08
2036.2
)
;

boundaryField
{
    sides
    {
        type            myMarshakRadiation;
        refValue        nonuniform List<scalar> 2(1837.25 1837.21);
        refGradient     uniform 0;
        valueFraction   nonuniform List<scalar> 2(0.0361446 0.0361446);
        source          uniform 0;
        value           nonuniform List<scalar> 2(2029.01 1816.47);
    }
    empty
    {
        type            empty;
    }
}


// ************************************************************************* //
