/*--------------------------------*- C++ -*----------------------------------*\
| =========                 |                                                 |
| \\      /  F ield         | OpenFOAM: The Open Source CFD Toolbox           |
|  \\    /   O peration     | Version:  2212                                  |
|   \\  /    A nd           | Website:  www.openfoam.com                      |
|    \\/     M anipulation  |                                                 |
\*---------------------------------------------------------------------------*/
FoamFile
{
    version     2.0;
    format      ascii;
    arch        "LSB;label=32;scalar=64";
    class       volScalarField;
    location    "0.005";
    object      p;
}
// * * * * * * * * * * * * * * * * * * * * * * * * * * * * * * * * * * * * * //

dimensions      [1 -1 -2 0 0 0 0];

internalField   nonuniform List<scalar> 
100
(
99185.7
99185.7
99185.7
99185.7
99185.7
99185.7
99185.7
99185.7
99185.7
99185.7
99185.7
99185.7
99185.7
99185.7
99185.6
99185.3
99184.7
99183.1
99179.3
99170.8
99152.5
99115.3
99043.7
98913.3
98689.1
98324.7
97765
96951.7
95831.6
94364.8
92531.9
90336.2
87802.5
84972.3
81897.9
78635.8
75242.4
71770.1
68265.9
64771.4
61320.2
57940.5
54655.9
51486.2
48448.3
45557.3
42829.4
40278.3
37921.8
35781.3
33882.6
32255.4
30929
29918.5
29213.5
28769.7
28518.7
28390.7
28330
28302.5
28290.6
28286.3
28285.8
28287.6
28290.7
28294.7
28299.2
28304
28309
28314.1
28319.5
28325.5
28324.9
28264.5
27937.1
26835.3
24281.5
20177.8
15681.2
12391.4
10768
10176
9992.54
9939.3
9924.26
9920.08
9918.93
9918.63
9918.54
9918.52
9918.52
9918.52
9918.52
9918.52
9918.52
9918.52
9918.52
9918.52
9918.52
9918.52
)
;

boundaryField
{
    sides
    {
        type            zeroGradient;
    }
    empty
    {
        type            empty;
    }
}


// ************************************************************************* //
