/*--------------------------------*- C++ -*----------------------------------*\
| =========                 |                                                 |
| \\      /  F ield         | OpenFOAM: The Open Source CFD Toolbox           |
|  \\    /   O peration     | Version:  2212                                  |
|   \\  /    A nd           | Website:  www.openfoam.com                      |
|    \\/     M anipulation  |                                                 |
\*---------------------------------------------------------------------------*/
FoamFile
{
    version     2.0;
    format      ascii;
    arch        "LSB;label=32;scalar=64";
    class       volScalarField;
    location    "0.005";
    object      p;
}
// * * * * * * * * * * * * * * * * * * * * * * * * * * * * * * * * * * * * * //

dimensions      [1 -1 -2 0 0 0 0];

internalField   nonuniform List<scalar> 
100
(
99185.7
99185.7
99185.7
99185.7
99185.7
99185.7
99185.7
99185.7
99185.7
99185.7
99185.7
99185.7
99185.7
99185.6
99185.4
99184.9
99183.7
99180.9
99174.9
99162.2
99136.8
99088.1
98999.2
98844.8
98590
98190.3
97594.4
96749.6
95608.5
94136.3
92316.1
90150.8
87662.4
84887.4
81872.5
78669
75328.7
71900.8
68430.5
64958.4
61518.4
58139.4
54846.2
51660.1
48599.7
45681.8
42924.3
40342.4
37955.7
35787.3
33865.2
32221.3
30887.9
29881.9
29192
28769.9
28540.7
28429.6
28378.8
28355.1
28342.8
28335.7
28331.6
28329.5
28329
28329.7
28331.2
28333
28334.6
28335.1
28333.3
28325.9
28300.1
28197.9
27819.5
26695.2
24201.8
20235.4
15846.9
12553.1
10863.7
10219.4
10010.2
9946.22
9926.96
9921.17
9919.42
9918.89
9918.72
9918.66
9918.64
9918.62
9918.61
9918.61
9918.6
9918.59
9918.59
9918.58
9918.58
9918.58
)
;

boundaryField
{
    sides
    {
        type            zeroGradient;
    }
    empty
    {
        type            empty;
    }
}


// ************************************************************************* //
