/*--------------------------------*- C++ -*----------------------------------*\
| =========                 |                                                 |
| \\      /  F ield         | OpenFOAM: The Open Source CFD Toolbox           |
|  \\    /   O peration     | Version:  2212                                  |
|   \\  /    A nd           | Website:  www.openfoam.com                      |
|    \\/     M anipulation  |                                                 |
\*---------------------------------------------------------------------------*/
FoamFile
{
    version     2.0;
    format      ascii;
    arch        "LSB;label=32;scalar=64";
    class       volScalarField;
    location    "0.005";
    object      rho;
}
// * * * * * * * * * * * * * * * * * * * * * * * * * * * * * * * * * * * * * //

dimensions      [1 -3 0 0 0 0 0];

internalField   nonuniform List<scalar> 
100
(
1.16102
1.16102
1.16102
1.16102
1.16102
1.16102
1.16102
1.16102
1.16102
1.16102
1.16102
1.16102
1.16102
1.16102
1.16102
1.16101
1.161
1.16098
1.16093
1.16082
1.16061
1.1602
1.15946
1.15817
1.15603
1.15268
1.14767
1.14054
1.13088
1.11836
1.10278
1.08412
1.06248
1.03813
1.01138
0.982628
0.952261
0.920671
0.888223
0.855263
0.822083
0.788948
0.756097
0.723748
0.692105
0.661369
0.631764
0.603499
0.576844
0.552117
0.529703
0.510033
0.493528
0.480385
0.470382
0.462702
0.456006
0.448773
0.439596
0.427471
0.411972
0.393348
0.37246
0.350566
0.32902
0.30902
0.291419
0.276689
0.264937
0.255995
0.249501
0.244986
0.241904
0.239471
0.236122
0.228728
0.213175
0.188173
0.159364
0.13634
0.123679
0.118574
0.116862
0.116332
0.116171
0.116123
0.116108
0.116104
0.116103
0.116102
0.116102
0.116102
0.116102
0.116102
0.116102
0.116102
0.116102
0.116102
0.116102
0.116102
)
;

boundaryField
{
    sides
    {
        type            zeroGradient;
    }
    empty
    {
        type            empty;
    }
}


// ************************************************************************* //
