/*--------------------------------*- C++ -*----------------------------------*\
| =========                 |                                                 |
| \\      /  F ield         | OpenFOAM: The Open Source CFD Toolbox           |
|  \\    /   O peration     | Version:  2212                                  |
|   \\  /    A nd           | Website:  www.openfoam.com                      |
|    \\/     M anipulation  |                                                 |
\*---------------------------------------------------------------------------*/
FoamFile
{
    version     2.0;
    format      ascii;
    arch        "LSB;label=32;scalar=64";
    class       volScalarField;
    location    "0.005";
    object      T;
}
// * * * * * * * * * * * * * * * * * * * * * * * * * * * * * * * * * * * * * //

dimensions      [0 0 0 1 0 0 0];

internalField   nonuniform List<scalar> 
100
(
300
300
300
300
300
300
300
300
300
300
300
300
300
300
300
299.999
299.998
299.996
299.99
299.979
299.957
299.913
299.835
299.698
299.472
299.117
298.586
297.832
296.808
295.477
293.815
291.814
289.478
286.825
283.88
280.675
277.243
273.617
269.829
265.912
261.895
257.804
253.665
249.505
245.353
241.238
237.198
233.274
229.522
226.014
222.847
220.139
218.034
216.67
216.156
216.577
218.044
220.764
225.078
231.43
240.258
251.868
266.325
283.377
302.419
322.518
342.53
361.27
377.737
391.284
401.705
409.191
414.153
416.919
417.164
413.144
401.599
379.866
350.558
323.947
308.678
302.727
300.824
300.25
300.079
300.027
300.011
300.006
300.004
300.004
300.003
300.003
300.003
300.003
300.002
300.002
300.002
300.002
300.002
300.002
)
;

boundaryField
{
    sides
    {
        type            zeroGradient;
    }
    empty
    {
        type            empty;
    }
}


// ************************************************************************* //
