/*--------------------------------*- C++ -*----------------------------------*\
| =========                 |                                                 |
| \\      /  F ield         | OpenFOAM: The Open Source CFD Toolbox           |
|  \\    /   O peration     | Version:  2212                                  |
|   \\  /    A nd           | Website:  www.openfoam.com                      |
|    \\/     M anipulation  |                                                 |
\*---------------------------------------------------------------------------*/
FoamFile
{
    version     2.0;
    format      ascii;
    arch        "LSB;label=32;scalar=64";
    class       volScalarField;
    location    "0.005";
    object      thermo:e;
}
// * * * * * * * * * * * * * * * * * * * * * * * * * * * * * * * * * * * * * //

dimensions      [0 2 -2 0 0 0 0];

internalField   nonuniform List<scalar> 
100
(
213576
213576
213576
213576
213576
213576
213576
213576
213576
213576
213576
213576
213576
213576
213576
213576
213575
213573
213570
213562
213546
213516
213461
213366
213210
212963
212595
212071
211360
210436
209282
207892
206269
204426
202380
200151
197765
195242
192607
189880
187083
184233
181348
178448
175552
172681
169861
167120
164499
162047
159833
157939
156467
155512
155152
155447
156473
158376
161393
165832
171997
180095
190167
202029
215255
229192
243047
256003
267375
276719
283903
289060
292477
294381
294550
291782
283830
268843
248600
230183
219598
215469
214148
213750
213631
213595
213584
213581
213579
213579
213579
213578
213578
213578
213578
213578
213578
213578
213578
213577
)
;

boundaryField
{
    sides
    {
        type            zeroGradient;
    }
    empty
    {
        type            empty;
    }
}


// ************************************************************************* //
