/*--------------------------------*- C++ -*----------------------------------*\
| =========                 |                                                 |
| \\      /  F ield         | OpenFOAM: The Open Source CFD Toolbox           |
|  \\    /   O peration     | Version:  2212                                  |
|   \\  /    A nd           | Website:  www.openfoam.com                      |
|    \\/     M anipulation  |                                                 |
\*---------------------------------------------------------------------------*/
FoamFile
{
    version     2.0;
    format      ascii;
    arch        "LSB;label=32;scalar=64";
    class       volVectorField;
    location    "0.005";
    object      U;
}
// * * * * * * * * * * * * * * * * * * * * * * * * * * * * * * * * * * * * * //

dimensions      [0 1 -1 0 0 0 0];

internalField   nonuniform List<vector> 
100
(
(4.56887e-06 0 0)
(5.6335e-06 0 0)
(6.69741e-06 0 0)
(7.77354e-06 0 0)
(8.87636e-06 0 0)
(1.00299e-05 0 0)
(1.1289e-05 0 0)
(1.28064e-05 0 0)
(1.50359e-05 0 0)
(1.93258e-05 0 0)
(2.95762e-05 0 0)
(5.66777e-05 0 0)
(0.000129874 0 0)
(0.000324511 0 0)
(0.000826544 0 0)
(0.00207484 0 0)
(0.00505808 0 0)
(0.0118979 0 0)
(0.0269208 0 0)
(0.0584883 0 0)
(0.121866 0 0)
(0.243282 0 0)
(0.464977 0 0)
(0.850392 0 0)
(1.48793 0 0)
(2.49122 0 0)
(3.99404 0 0)
(6.13954 0 0)
(9.06528 0 0)
(12.8876 0 0)
(17.6893 0 0)
(23.5132 0 0)
(30.3624 0 0)
(38.2061 0 0)
(46.9881 0 0)
(56.6358 0 0)
(67.068 0 0)
(78.2016 0 0)
(89.9528 0 0)
(102.24 0 0)
(114.988 0 0)
(128.127 0 0)
(141.584 0 0)
(155.283 0 0)
(169.144 0 0)
(183.071 0 0)
(196.945 0 0)
(210.627 0 0)
(223.923 0 0)
(236.579 0 0)
(248.269 0 0)
(258.598 0 0)
(267.169 0 0)
(273.707 0 0)
(278.199 0 0)
(280.943 0 0)
(282.437 0 0)
(283.184 0 0)
(283.557 0 0)
(283.766 0 0)
(283.908 0 0)
(284.021 0 0)
(284.12 0 0)
(284.21 0 0)
(284.292 0 0)
(284.368 0 0)
(284.438 0 0)
(284.502 0 0)
(284.556 0 0)
(284.591 0 0)
(284.594 0 0)
(284.524 0 0)
(284.202 0 0)
(282.843 0 0)
(277.928 0 0)
(263.937 0 0)
(233.376 0 0)
(182.103 0 0)
(117.014 0 0)
(58.096 0 0)
(22.4093 0 0)
(7.36811 0 0)
(2.26806 0 0)
(0.685332 0 0)
(0.206939 0 0)
(0.0630421 0 0)
(0.0197015 0 0)
(0.00660182 0 0)
(0.00261005 0 0)
(0.00136215 0 0)
(0.000940246 0 0)
(0.000767326 0 0)
(0.000670457 0 0)
(0.000597914 0 0)
(0.000534017 0 0)
(0.000473645 0 0)
(0.000414692 0 0)
(0.000355855 0 0)
(0.000295991 0 0)
(0.000233838 0 0)
)
;

boundaryField
{
    sides
    {
        type            zeroGradient;
    }
    empty
    {
        type            empty;
    }
}


// ************************************************************************* //
