/*--------------------------------*- C++ -*----------------------------------*\
| =========                 |                                                 |
| \\      /  F ield         | OpenFOAM: The Open Source CFD Toolbox           |
|  \\    /   O peration     | Version:  2312                                  |
|   \\  /    A nd           | Website:  www.openfoam.com                      |
|    \\/     M anipulation  |                                                 |
\*---------------------------------------------------------------------------*/
FoamFile
{
    version     2.0;
    format      ascii;
    arch        "LSB;label=32;scalar=64";
    class       volScalarField;
    location    "0.01";
    object      T;
}
// * * * * * * * * * * * * * * * * * * * * * * * * * * * * * * * * * * * * * //

dimensions      [0 0 0 1 0 0 0];

internalField   nonuniform List<scalar> 
100
(
299.955
299.925
299.876
299.802
299.692
299.531
299.307
299.003
298.602
298.089
297.451
296.679
295.765
294.709
293.511
292.178
290.716
289.135
287.445
285.659
283.785
281.836
279.82
277.746
275.623
273.458
271.257
269.027
266.77
264.499
262.192
259.934
257.486
255.507
252.418
251.58
246.792
247.88
241.781
242.697
238.475
236.946
234.462
232.368
230.184
227.949
225.784
223.768
221.88
220.048
218.262
216.595
215.116
213.892
213.051
212.66
212.432
211.894
211.076
210.732
211.495
212.858
213.4
212.282
210.396
209.727
211.507
214.917
217.436
216.704
212.545
207.343
204.583
207.139
216.515
232.853
255.137
281.418
309.173
335.814
359.24
378.219
392.468
402.44
408.983
413.027
415.387
416.689
417.364
417.69
417.831
417.891
417.915
418.026
418.325
418.637
422.325
418.885
432.674
423.742
)
;

boundaryField
{
    sides
    {
        type            zeroGradient;
    }
    empty
    {
        type            empty;
    }
}


// ************************************************************************* //
