/*--------------------------------*- C++ -*----------------------------------*\
| =========                 |                                                 |
| \\      /  F ield         | OpenFOAM: The Open Source CFD Toolbox           |
|  \\    /   O peration     | Version:  2312                                  |
|   \\  /    A nd           | Website:  www.openfoam.com                      |
|    \\/     M anipulation  |                                                 |
\*---------------------------------------------------------------------------*/
FoamFile
{
    version     2.0;
    format      ascii;
    arch        "LSB;label=32;scalar=64";
    class       volScalarField;
    location    "0.01";
    object      thermo:e;
}
// * * * * * * * * * * * * * * * * * * * * * * * * * * * * * * * * * * * * * //

dimensions      [0 2 -2 0 0 0 0];

internalField   nonuniform List<scalar> 
100
(
215728
215706
215671
215618
215538
215423
215262
215043
214754
214386
213927
213371
212715
211955
211093
210134
209083
207946
206731
205446
204098
202696
201246
199755
198228
196671
195088
193484
191861
190227
188568
186945
185184
183761
181539
180937
177493
178275
173889
174548
171512
170412
168625
167119
165548
163941
162384
160934
159576
158259
156974
155775
154712
153831
153226
152945
152781
152394
151806
151558
152107
153087
153477
152674
151317
150836
152116
154569
156380
155854
152862
149121
147136
148974
155718
167468
183494
202396
222357
241518
258366
272015
282263
289435
294141
297049
298747
299683
300168
300402
300504
300547
300564
300645
300859
301084
303736
301262
311179
304755
)
;

boundaryField
{
    sides
    {
        type            zeroGradient;
    }
    empty
    {
        type            empty;
    }
}


// ************************************************************************* //
