/*--------------------------------*- C++ -*----------------------------------*\
| =========                 |                                                 |
| \\      /  F ield         | OpenFOAM: The Open Source CFD Toolbox           |
|  \\    /   O peration     | Version:  2312                                  |
|   \\  /    A nd           | Website:  www.openfoam.com                      |
|    \\/     M anipulation  |                                                 |
\*---------------------------------------------------------------------------*/
FoamFile
{
    version     2.0;
    format      ascii;
    arch        "LSB;label=32;scalar=64";
    class       volScalarField;
    location    "0.059";
    object      p;
}
// * * * * * * * * * * * * * * * * * * * * * * * * * * * * * * * * * * * * * //

dimensions      [1 -1 -2 0 0 0 0];

internalField   nonuniform List<scalar> 
100
(
28949.4
28804.2
28696.4
28465.9
28394.7
28125
28099.9
27791.2
27803.2
27475.5
27491.7
27191.6
27152
26950.9
26775.4
26758.6
26361.4
26609.9
25921.3
26488.1
25479
26364.3
25068.9
26203.4
24726.1
25975.9
24472.6
25672.6
24305.4
25310.9
24197.4
24928.1
24110.6
24563.2
24013.5
24242.2
23892.4
23972.6
23750.1
23748.6
23598.5
23560.8
23450.2
23401.5
23314.2
23266.6
23196.1
23155.1
23098.7
23066.6
23023.3
23001.2
22970.1
22957.9
22938
22935.4
22925.5
22931.9
22931.5
22947.3
22958.3
22988.8
23023
23092.6
23197.8
23395.2
23723.4
24277.7
25105.3
26229.4
27532.7
28861.5
30022.8
30945.1
31595.8
32047
32332.9
32533.2
32659
32761.7
32830.7
32900.4
32951.8
33011.8
33058.9
33116.7
33163.9
33221.8
33270
33328.6
33377.4
33436.2
33484.8
33543
33590
33646.8
33690.6
33745
33784.6
33829.5
)
;

boundaryField
{
    sides
    {
        type            zeroGradient;
    }
    empty
    {
        type            empty;
    }
}


// ************************************************************************* //
