/*--------------------------------*- C++ -*----------------------------------*\
| =========                 |                                                 |
| \\      /  F ield         | OpenFOAM: The Open Source CFD Toolbox           |
|  \\    /   O peration     | Version:  2312                                  |
|   \\  /    A nd           | Website:  www.openfoam.com                      |
|    \\/     M anipulation  |                                                 |
\*---------------------------------------------------------------------------*/
FoamFile
{
    version     2.0;
    format      ascii;
    arch        "LSB;label=32;scalar=64";
    class       volScalarField;
    location    "0.059";
    object      rho;
}
// * * * * * * * * * * * * * * * * * * * * * * * * * * * * * * * * * * * * * //

dimensions      [1 -3 0 0 0 0 0];

internalField   nonuniform List<scalar> 
100
(
0.44643
0.44558
0.444209
0.442889
0.441432
0.440108
0.438628
0.437302
0.435844
0.434486
0.433103
0.431661
0.430408
0.428828
0.42774
0.425984
0.42506
0.423126
0.422317
0.420245
0.419443
0.417332
0.416376
0.41436
0.413081
0.41129
0.409579
0.408071
0.40595
0.404681
0.402303
0.401157
0.398743
0.3976
0.395352
0.394156
0.392192
0.390969
0.389323
0.388147
0.386805
0.385753
0.384687
0.383816
0.383002
0.382338
0.38176
0.38131
0.380954
0.380711
0.380561
0.380513
0.380552
0.380682
0.38089
0.381179
0.381539
0.381971
0.382472
0.383049
0.383715
0.384506
0.385494
0.386822
0.388757
0.391771
0.396596
0.404142
0.415096
0.429278
0.445304
0.461076
0.474794
0.485612
0.493619
0.499395
0.503608
0.506804
0.509364
0.511526
0.513433
0.515166
0.516766
0.51826
0.519656
0.520964
0.522186
0.523329
0.524396
0.525393
0.526324
0.527196
0.528012
0.528778
0.529497
0.530172
0.530806
0.531399
0.53196
0.532348
)
;

boundaryField
{
    sides
    {
        type            zeroGradient;
    }
    empty
    {
        type            empty;
    }
}


// ************************************************************************* //
