/*--------------------------------*- C++ -*----------------------------------*\
| =========                 |                                                 |
| \\      /  F ield         | OpenFOAM: The Open Source CFD Toolbox           |
|  \\    /   O peration     | Version:  2312                                  |
|   \\  /    A nd           | Website:  www.openfoam.com                      |
|    \\/     M anipulation  |                                                 |
\*---------------------------------------------------------------------------*/
FoamFile
{
    version     2.0;
    format      ascii;
    arch        "LSB;label=32;scalar=64";
    class       volScalarField;
    location    "0.059";
    object      T;
}
// * * * * * * * * * * * * * * * * * * * * * * * * * * * * * * * * * * * * * //

dimensions      [0 0 0 1 0 0 0];

internalField   nonuniform List<scalar> 
100
(
225.398
224.695
224.545
223.405
223.582
222.125
222.675
220.896
221.732
219.803
220.635
218.955
219.273
218.451
217.58
218.339
215.566
218.593
213.344
219.084
211.141
219.583
209.272
219.808
208.057
219.526
207.685
218.674
208.11
217.399
209.064
215.992
210.173
214.735
211.123
213.78
211.75
213.125
212.04
212.67
212.059
212.297
211.886
211.926
211.584
211.519
211.196
211.072
210.755
210.597
210.285
210.108
209.803
209.62
209.324
209.142
208.855
208.677
208.4
208.229
207.967
207.814
207.591
207.503
207.411
207.566
207.918
208.803
210.223
212.38
214.909
217.575
219.79
221.496
222.485
223.052
223.159
223.125
222.863
222.619
222.259
221.982
221.64
221.404
221.124
220.955
220.751
220.654
220.525
220.493
220.426
220.449
220.428
220.492
220.5
220.592
220.616
220.725
220.751
220.884
)
;

boundaryField
{
    sides
    {
        type            zeroGradient;
    }
    empty
    {
        type            empty;
    }
}


// ************************************************************************* //
