/*--------------------------------*- C++ -*----------------------------------*\
| =========                 |                                                 |
| \\      /  F ield         | OpenFOAM: The Open Source CFD Toolbox           |
|  \\    /   O peration     | Version:  2312                                  |
|   \\  /    A nd           | Website:  www.openfoam.com                      |
|    \\/     M anipulation  |                                                 |
\*---------------------------------------------------------------------------*/
FoamFile
{
    version     2.0;
    format      ascii;
    arch        "LSB;label=32;scalar=64";
    class       volVectorField;
    location    "0.059";
    object      U;
}
// * * * * * * * * * * * * * * * * * * * * * * * * * * * * * * * * * * * * * //

dimensions      [0 1 -1 0 0 0 0];

internalField   nonuniform List<vector> 
100
(
(177.276 0 0)
(178.29 0 0)
(179.685 0 0)
(180.969 0 0)
(182.409 0 0)
(183.687 0 0)
(185.132 0 0)
(186.428 0 0)
(187.836 0 0)
(189.198 0 0)
(190.512 0 0)
(191.99 0 0)
(193.158 0 0)
(194.794 0 0)
(195.784 0 0)
(197.586 0 0)
(198.403 0 0)
(200.34 0 0)
(201.035 0 0)
(203.022 0 0)
(203.7 0 0)
(205.603 0 0)
(206.408 0 0)
(208.077 0 0)
(209.147 0 0)
(210.469 0 0)
(211.871 0 0)
(212.832 0 0)
(214.522 0 0)
(215.217 0 0)
(217.053 0 0)
(217.641 0 0)
(219.452 0 0)
(220.079 0 0)
(221.738 0 0)
(222.482 0 0)
(223.937 0 0)
(224.795 0 0)
(226.061 0 0)
(226.984 0 0)
(228.098 0 0)
(229.027 0 0)
(230.022 0 0)
(230.91 0 0)
(231.804 0 0)
(232.625 0 0)
(233.423 0 0)
(234.16 0 0)
(234.863 0 0)
(235.51 0 0)
(236.118 0 0)
(236.676 0 0)
(237.193 0 0)
(237.666 0 0)
(238.101 0 0)
(238.496 0 0)
(238.859 0 0)
(239.186 0 0)
(239.481 0 0)
(239.736 0 0)
(239.941 0 0)
(240.065 0 0)
(240.052 0 0)
(239.782 0 0)
(239.044 0 0)
(237.477 0 0)
(234.557 0 0)
(229.709 0 0)
(222.633 0 0)
(213.704 0 0)
(204.032 0 0)
(195.009 0 0)
(187.651 0 0)
(182.32 0 0)
(178.825 0 0)
(176.737 0 0)
(175.614 0 0)
(175.108 0 0)
(174.981 0 0)
(175.08 0 0)
(175.314 0 0)
(175.626 0 0)
(175.987 0 0)
(176.374 0 0)
(176.781 0 0)
(177.198 0 0)
(177.625 0 0)
(178.056 0 0)
(178.493 0 0)
(178.934 0 0)
(179.378 0 0)
(179.827 0 0)
(180.279 0 0)
(180.736 0 0)
(181.197 0 0)
(181.664 0 0)
(182.136 0 0)
(182.615 0 0)
(183.1 0 0)
(183.501 0 0)
)
;

boundaryField
{
    sides
    {
        type            mywaveTransmissive;
        gamma           1.4;
        value           nonuniform List<vector> 2((183.677 0 0) (176.755 0 0));
    }
    empty
    {
        type            empty;
    }
}


// ************************************************************************* //
