/*--------------------------------*- C++ -*----------------------------------*\
| =========                 |                                                 |
| \\      /  F ield         | OpenFOAM: The Open Source CFD Toolbox           |
|  \\    /   O peration     | Version:  2212                                  |
|   \\  /    A nd           | Website:  www.openfoam.com                      |
|    \\/     M anipulation  |                                                 |
\*---------------------------------------------------------------------------*/
FoamFile
{
    version     2.0;
    format      ascii;
    arch        "LSB;label=32;scalar=64";
    class       volScalarField;
    location    "0.006";
    object      G;
}
// * * * * * * * * * * * * * * * * * * * * * * * * * * * * * * * * * * * * * //

dimensions      [1 0 -3 0 0 0 0];

internalField   nonuniform List<scalar> 
100
(
1806.24
1803.76
1801.04
1798.05
1794.76
1791.16
1787.21
1782.88
1778.15
1772.97
1767.31
1761.13
1754.38
1747
1738.95
1730.17
1720.59
1710.14
1698.75
1686.36
1672.89
1658.28
1642.46
1625.41
1607.11
1587.56
1566.81
1544.93
1522.03
1498.26
1473.79
1448.81
1423.57
1398.29
1373.22
1348.64
1324.81
1302
1280.5
1260.58
1242.51
1226.58
1213.07
1202.25
1194.42
1189.86
1188.87
1191.73
1198.77
1210.28
1226.6
1248.05
1274.96
1307.67
1346.53
1391.89
1444.11
1503.55
1570.6
1645.64
1729.07
1821.21
1922.34
2032.56
2151.77
2279.52
2414.93
2556.49
2702.04
2848.62
2992.67
3130.13
3256.86
3368.95
3463.03
3536.41
3587.13
3613.79
3615.47
3591.57
3542.08
3468.35
3374.5
3268.18
3158.61
3052.83
2954.05
2863
2779.46
2702.92
2632.86
2568.75
2510.14
2456.56
2407.64
2362.98
2322.28
2285.2
2251.49
2220.89
)
;

boundaryField
{
    sides
    {
        type            myMarshakRadiation;
        refValue        nonuniform List<scalar> 2(1837.3 1837.21);
        refGradient     uniform 0;
        valueFraction   nonuniform List<scalar> 2(0.0361446 0.0361446);
        source          uniform 0;
        value           nonuniform List<scalar> 2(2207.02 1807.36);
    }
    empty
    {
        type            empty;
    }
}


// ************************************************************************* //
