/*--------------------------------*- C++ -*----------------------------------*\
| =========                 |                                                 |
| \\      /  F ield         | OpenFOAM: The Open Source CFD Toolbox           |
|  \\    /   O peration     | Version:  2212                                  |
|   \\  /    A nd           | Website:  www.openfoam.com                      |
|    \\/     M anipulation  |                                                 |
\*---------------------------------------------------------------------------*/
FoamFile
{
    version     2.0;
    format      ascii;
    arch        "LSB;label=32;scalar=64";
    class       volScalarField;
    location    "0.006";
    object      p;
}
// * * * * * * * * * * * * * * * * * * * * * * * * * * * * * * * * * * * * * //

dimensions      [1 -1 -2 0 0 0 0];

internalField   nonuniform List<scalar> 
100
(
99185.7
99185.7
99185.7
99185.7
99185.7
99185.7
99185.7
99185.7
99185.6
99185.4
99185
99184.1
99182.1
99177.9
99169.3
99152.7
99121.8
99066.3
98971.3
98815.2
98570
98201.6
97671.9
96942.4
95979
94755.9
93259.1
91488.1
89454.9
87182.5
84701.4
82046.6
79254.7
76361.6
73401.2
70404.2
67397.7
64406.7
61450
58544.9
55706.2
52946.4
50276.2
47705.1
45243.5
42899.5
40682.2
38602.7
36674.1
34912.6
33337.5
31971.6
30836.8
29946.5
29298.1
28866
28604.5
28460.1
28385.9
28348.6
28329
28317.8
28310.9
28306.6
28304.2
28303.2
28303.4
28304.4
28306
28308.2
28310.7
28313.6
28316.6
28319.6
28322.2
28324
28324.4
28319.8
28286.9
28121.5
27507.7
25844.9
22616.5
18224.2
14142.5
11590.6
10474.1
10088.9
9969.54
9933.85
9923.25
9920.08
9919.13
9918.83
9918.74
9918.7
9918.68
9918.67
9918.66
9918.65
)
;

boundaryField
{
    sides
    {
        type            zeroGradient;
    }
    empty
    {
        type            empty;
    }
}


// ************************************************************************* //
