/*--------------------------------*- C++ -*----------------------------------*\
| =========                 |                                                 |
| \\      /  F ield         | OpenFOAM: The Open Source CFD Toolbox           |
|  \\    /   O peration     | Version:  2212                                  |
|   \\  /    A nd           | Website:  www.openfoam.com                      |
|    \\/     M anipulation  |                                                 |
\*---------------------------------------------------------------------------*/
FoamFile
{
    version     2.0;
    format      ascii;
    arch        "LSB;label=32;scalar=64";
    class       volScalarField;
    location    "0.006";
    object      rho;
}
// * * * * * * * * * * * * * * * * * * * * * * * * * * * * * * * * * * * * * //

dimensions      [1 -3 0 0 0 0 0];

internalField   nonuniform List<scalar> 
100
(
1.16102
1.16102
1.16102
1.16102
1.16102
1.16102
1.16102
1.16102
1.16102
1.16102
1.16102
1.16101
1.161
1.16098
1.16093
1.16083
1.16062
1.16025
1.15958
1.15844
1.15659
1.15373
1.14952
1.14359
1.13562
1.12532
1.11254
1.09723
1.07945
1.05938
1.03724
1.01333
0.987953
0.961406
0.933978
0.905932
0.877502
0.848909
0.820322
0.7919
0.763783
0.736094
0.708946
0.682445
0.656711
0.631847
0.607974
0.585239
0.563816
0.543919
0.525804
0.509759
0.496065
0.484893
0.476215
0.469708
0.464754
0.460528
0.45614
0.450702
0.443395
0.433556
0.420799
0.40513
0.387011
0.367271
0.346962
0.327141
0.308721
0.292354
0.278417
0.267019
0.258067
0.251317
0.246438
0.243068
0.240857
0.239484
0.23857
0.237294
0.233542
0.223363
0.203108
0.174622
0.146905
0.128639
0.1203
0.11737
0.116469
0.116206
0.116131
0.11611
0.116104
0.116103
0.116102
0.116102
0.116102
0.116102
0.116102
0.116102
)
;

boundaryField
{
    sides
    {
        type            zeroGradient;
    }
    empty
    {
        type            empty;
    }
}


// ************************************************************************* //
