/*--------------------------------*- C++ -*----------------------------------*\
| =========                 |                                                 |
| \\      /  F ield         | OpenFOAM: The Open Source CFD Toolbox           |
|  \\    /   O peration     | Version:  2212                                  |
|   \\  /    A nd           | Website:  www.openfoam.com                      |
|    \\/     M anipulation  |                                                 |
\*---------------------------------------------------------------------------*/
FoamFile
{
    version     2.0;
    format      ascii;
    arch        "LSB;label=32;scalar=64";
    class       volScalarField;
    location    "0.006";
    object      rho;
}
// * * * * * * * * * * * * * * * * * * * * * * * * * * * * * * * * * * * * * //

dimensions      [1 -3 0 0 0 0 0];

internalField   nonuniform List<scalar> 
100
(
1.16102
1.16102
1.16102
1.16102
1.16102
1.16102
1.16102
1.16102
1.16102
1.16102
1.16101
1.16101
1.16099
1.16095
1.16088
1.16074
1.16049
1.16002
1.15923
1.15792
1.15587
1.15277
1.14832
1.14217
1.13403
1.12365
1.11089
1.09569
1.07814
1.05836
1.03659
1.01307
0.988081
0.961908
0.934817
0.907057
0.878856
0.850428
0.821942
0.793559
0.765422
0.737661
0.710393
0.683732
0.657804
0.63272
0.608611
0.585629
0.56396
0.543832
0.525514
0.509317
0.495543
0.484375
0.475781
0.469404
0.464573
0.460412
0.456005
0.450463
0.442994
0.432975
0.420063
0.404302
0.386175
0.366513
0.346355
0.326734
0.308535
0.292387
0.278647
0.267413
0.258584
0.251913
0.247069
0.24369
0.241425
0.239944
0.238852
0.237328
0.233329
0.223085
0.203108
0.175094
0.147628
0.129221
0.120615
0.117509
0.116525
0.116228
0.11614
0.116113
0.116106
0.116103
0.116102
0.116102
0.116102
0.116102
0.116102
0.116102
)
;

boundaryField
{
    sides
    {
        type            zeroGradient;
    }
    empty
    {
        type            empty;
    }
}


// ************************************************************************* //
