/*--------------------------------*- C++ -*----------------------------------*\
| =========                 |                                                 |
| \\      /  F ield         | OpenFOAM: The Open Source CFD Toolbox           |
|  \\    /   O peration     | Version:  2212                                  |
|   \\  /    A nd           | Website:  www.openfoam.com                      |
|    \\/     M anipulation  |                                                 |
\*---------------------------------------------------------------------------*/
FoamFile
{
    version     2.0;
    format      ascii;
    arch        "LSB;label=32;scalar=64";
    class       volScalarField;
    location    "0.006";
    object      T;
}
// * * * * * * * * * * * * * * * * * * * * * * * * * * * * * * * * * * * * * //

dimensions      [0 0 0 1 0 0 0];

internalField   nonuniform List<scalar> 
100
(
300
300
300
300
300
300
300
300
300
300
299.999
299.998
299.997
299.993
299.985
299.971
299.943
299.894
299.81
299.671
299.454
299.126
298.655
298.003
297.139
296.035
294.672
293.044
291.151
289.003
286.617
284.014
281.218
278.251
275.137
271.899
268.558
265.133
261.642
258.101
254.525
250.93
247.332
243.746
240.192
236.69
233.263
229.943
226.77
223.794
221.079
218.704
216.756
215.316
214.437
214.137
214.411
215.278
216.831
219.271
222.906
228.105
235.24
244.613
256.374
270.48
286.639
304.318
322.762
341.084
358.377
373.866
387.006
397.564
405.599
411.395
415.359
417.92
419.379
419.61
417.431
410.025
393.696
367.358
337.402
315.377
305.078
301.538
300.461
300.142
300.047
300.018
300.01
300.007
300.005
300.005
300.004
300.004
300.004
300.004
)
;

boundaryField
{
    sides
    {
        type            zeroGradient;
    }
    empty
    {
        type            empty;
    }
}


// ************************************************************************* //
