/*--------------------------------*- C++ -*----------------------------------*\
| =========                 |                                                 |
| \\      /  F ield         | OpenFOAM: The Open Source CFD Toolbox           |
|  \\    /   O peration     | Version:  2212                                  |
|   \\  /    A nd           | Website:  www.openfoam.com                      |
|    \\/     M anipulation  |                                                 |
\*---------------------------------------------------------------------------*/
FoamFile
{
    version     2.0;
    format      ascii;
    arch        "LSB;label=32;scalar=64";
    class       volScalarField;
    location    "0.006";
    object      thermo:e;
}
// * * * * * * * * * * * * * * * * * * * * * * * * * * * * * * * * * * * * * //

dimensions      [0 2 -2 0 0 0 0];

internalField   nonuniform List<scalar> 
100
(
213576
213576
213576
213576
213576
213576
213576
213576
213576
213576
213576
213575
213574
213571
213566
213556
213537
213503
213444
213348
213197
212970
212642
212190
211590
210823
209877
208746
207431
205939
204282
202473
200529
198466
196300
194047
191722
189338
186907
184440
181948
179442
176933
174431
171951
169506
167113
164794
162576
160495
158596
156935
155572
154564
153949
153739
153931
154538
155625
157332
159874
163509
168494
175036
183237
193060
204297
216573
229361
242047
254005
264702
273769
281049
286586
290578
293307
295070
296075
296234
294734
289634
278383
260209
239499
224243
217100
214644
213896
213675
213609
213589
213583
213581
213580
213580
213579
213579
213579
213579
)
;

boundaryField
{
    sides
    {
        type            zeroGradient;
    }
    empty
    {
        type            empty;
    }
}


// ************************************************************************* //
