/*--------------------------------*- C++ -*----------------------------------*\
| =========                 |                                                 |
| \\      /  F ield         | OpenFOAM: The Open Source CFD Toolbox           |
|  \\    /   O peration     | Version:  2212                                  |
|   \\  /    A nd           | Website:  www.openfoam.com                      |
|    \\/     M anipulation  |                                                 |
\*---------------------------------------------------------------------------*/
FoamFile
{
    version     2.0;
    format      ascii;
    arch        "LSB;label=32;scalar=64";
    class       volScalarField;
    location    "0.006";
    object      thermo:e;
}
// * * * * * * * * * * * * * * * * * * * * * * * * * * * * * * * * * * * * * //

dimensions      [0 2 -2 0 0 0 0];

internalField   nonuniform List<scalar> 
100
(
213576
213576
213576
213576
213576
213576
213576
213576
213576
213576
213576
213576
213575
213573
213570
213562
213547
213520
213470
213386
213251
213040
212731
212295
211708
210948
210002
208863
207533
206020
204337
202500
200526
198435
196243
193967
191622
189222
186781
184308
181815
179312
176810
174319
171852
169423
167047
164746
162546
160481
158594
156936
155567
154539
153889
153632
153768
154316
155342
156985
159460
163026
167947
174439
182612
192441
203725
216092
229014
241866
254009
264890
274120
281527
287149
291183
293922
295679
296688
296872
295397
290236
278728
260104
239029
223788
216849
214533
213849
213653
213598
213582
213578
213577
213576
213576
213576
213576
213576
213576
)
;

boundaryField
{
    sides
    {
        type            zeroGradient;
    }
    empty
    {
        type            empty;
    }
}


// ************************************************************************* //
