/*--------------------------------*- C++ -*----------------------------------*\
| =========                 |                                                 |
| \\      /  F ield         | OpenFOAM: The Open Source CFD Toolbox           |
|  \\    /   O peration     | Version:  2212                                  |
|   \\  /    A nd           | Website:  www.openfoam.com                      |
|    \\/     M anipulation  |                                                 |
\*---------------------------------------------------------------------------*/
FoamFile
{
    version     2.0;
    format      ascii;
    arch        "LSB;label=32;scalar=64";
    class       volVectorField;
    location    "0.006";
    object      U;
}
// * * * * * * * * * * * * * * * * * * * * * * * * * * * * * * * * * * * * * //

dimensions      [0 1 -1 0 0 0 0];

internalField   nonuniform List<vector> 
100
(
(1.07707e-08 0 0)
(3.97426e-08 0 0)
(1.41123e-07 0 0)
(4.82352e-07 0 0)
(1.5867e-06 0 0)
(5.02248e-06 0 0)
(1.52952e-05 0 0)
(4.48032e-05 0 0)
(0.000126205 0 0)
(0.000341775 0 0)
(0.000889546 0 0)
(0.00222442 0 0)
(0.00534235 0 0)
(0.0123182 0 0)
(0.0272573 0 0)
(0.057858 0 0)
(0.117765 0 0)
(0.229766 0 0)
(0.4296 0 0)
(0.769684 0 0)
(1.32159 0 0)
(2.17584 0 0)
(3.43783 0 0)
(5.21975 0 0)
(7.62953 0 0)
(10.7593 0 0)
(14.676 0 0)
(19.416 0 0)
(24.9852 0 0)
(31.3618 0 0)
(38.5034 0 0)
(46.3531 0 0)
(54.8467 0 0)
(63.917 0 0)
(73.4983 0 0)
(83.528 0 0)
(93.9458 0 0)
(104.697 0 0)
(115.734 0 0)
(127.012 0 0)
(138.487 0 0)
(150.115 0 0)
(161.852 0 0)
(173.649 0 0)
(185.447 0 0)
(197.183 0 0)
(208.777 0 0)
(220.123 0 0)
(231.085 0 0)
(241.489 0 0)
(251.12 0 0)
(259.724 0 0)
(267.05 0 0)
(272.912 0 0)
(277.255 0 0)
(280.204 0 0)
(282.032 0 0)
(283.075 0 0)
(283.631 0 0)
(283.92 0 0)
(284.073 0 0)
(284.16 0 0)
(284.215 0 0)
(284.254 0 0)
(284.285 0 0)
(284.313 0 0)
(284.341 0 0)
(284.37 0 0)
(284.4 0 0)
(284.433 0 0)
(284.468 0 0)
(284.506 0 0)
(284.547 0 0)
(284.591 0 0)
(284.637 0 0)
(284.689 0 0)
(284.757 0 0)
(284.818 0 0)
(284.575 0 0)
(282.641 0 0)
(275.024 0 0)
(254.485 0 0)
(213.726 0 0)
(152.813 0 0)
(86.1996 0 0)
(36.7376 0 0)
(12.5006 0 0)
(3.78439 0 0)
(1.09457 0 0)
(0.310872 0 0)
(0.0873411 0 0)
(0.024292 0 0)
(0.00667908 0 0)
(0.00181178 0 0)
(0.000483823 0 0)
(0.000126921 0 0)
(3.26406e-05 0 0)
(8.21371e-06 0 0)
(2.01896e-06 0 0)
(4.83853e-07 0 0)
)
;

boundaryField
{
    sides
    {
        type            zeroGradient;
    }
    empty
    {
        type            empty;
    }
}


// ************************************************************************* //
