/*--------------------------------*- C++ -*----------------------------------*\
| =========                 |                                                 |
| \\      /  F ield         | OpenFOAM: The Open Source CFD Toolbox           |
|  \\    /   O peration     | Version:  2212                                  |
|   \\  /    A nd           | Website:  www.openfoam.com                      |
|    \\/     M anipulation  |                                                 |
\*---------------------------------------------------------------------------*/
FoamFile
{
    version     2.0;
    format      ascii;
    arch        "LSB;label=32;scalar=64";
    class       volVectorField;
    location    "0.006";
    object      U;
}
// * * * * * * * * * * * * * * * * * * * * * * * * * * * * * * * * * * * * * //

dimensions      [0 1 -1 0 0 0 0];

internalField   nonuniform List<vector> 
100
(
(1.02681e-05 0 0)
(1.24757e-05 0 0)
(1.50034e-05 0 0)
(1.84062e-05 0 0)
(2.41938e-05 0 0)
(3.64014e-05 0 0)
(6.54823e-05 0 0)
(0.000137587 0 0)
(0.000315759 0 0)
(0.000746266 0 0)
(0.0017552 0 0)
(0.00404017 0 0)
(0.00903085 0 0)
(0.019529 0 0)
(0.0407738 0 0)
(0.0820909 0 0)
(0.159237 0 0)
(0.297399 0 0)
(0.534539 0 0)
(0.924372 0 0)
(1.53795 0 0)
(2.46268 0 0)
(3.79801 0 0)
(5.64785 0 0)
(8.11082 0 0)
(11.2705 0 0)
(15.1876 0 0)
(19.896 0 0)
(25.4023 0 0)
(31.689 0 0)
(38.7198 0 0)
(46.4455 0 0)
(54.8091 0 0)
(63.7507 0 0)
(73.2106 0 0)
(83.1313 0 0)
(93.4562 0 0)
(104.133 0 0)
(115.117 0 0)
(126.364 0 0)
(137.829 0 0)
(149.469 0 0)
(161.24 0 0)
(173.091 0 0)
(184.961 0 0)
(196.785 0 0)
(208.479 0 0)
(219.936 0 0)
(231.013 0 0)
(241.529 0 0)
(251.255 0 0)
(259.925 0 0)
(267.271 0 0)
(273.096 0 0)
(277.351 0 0)
(280.179 0 0)
(281.886 0 0)
(282.833 0 0)
(283.332 0 0)
(283.601 0 0)
(283.761 0 0)
(283.871 0 0)
(283.956 0 0)
(284.029 0 0)
(284.092 0 0)
(284.151 0 0)
(284.205 0 0)
(284.258 0 0)
(284.309 0 0)
(284.359 0 0)
(284.41 0 0)
(284.46 0 0)
(284.51 0 0)
(284.556 0 0)
(284.597 0 0)
(284.627 0 0)
(284.639 0 0)
(284.578 0 0)
(284.11 0 0)
(281.853 0 0)
(273.958 0 0)
(253.493 0 0)
(213.421 0 0)
(153.673 0 0)
(87.9465 0 0)
(38.3512 0 0)
(13.4251 0 0)
(4.19754 0 0)
(1.26225 0 0)
(0.376958 0 0)
(0.113486 0 0)
(0.0350691 0 0)
(0.011593 0 0)
(0.00447012 0 0)
(0.00223286 0 0)
(0.00146059 0 0)
(0.00112896 0 0)
(0.000929773 0 0)
(0.000769326 0 0)
(0.000617869 0 0)
)
;

boundaryField
{
    sides
    {
        type            zeroGradient;
    }
    empty
    {
        type            empty;
    }
}


// ************************************************************************* //
