/*--------------------------------*- C++ -*----------------------------------*\
| =========                 |                                                 |
| \\      /  F ield         | OpenFOAM: The Open Source CFD Toolbox           |
|  \\    /   O peration     | Version:  2312                                  |
|   \\  /    A nd           | Website:  www.openfoam.com                      |
|    \\/     M anipulation  |                                                 |
\*---------------------------------------------------------------------------*/
FoamFile
{
    version     2.0;
    format      ascii;
    arch        "LSB;label=32;scalar=64";
    class       volScalarField;
    location    "5e-05";
    object      rho;
}
// * * * * * * * * * * * * * * * * * * * * * * * * * * * * * * * * * * * * * //

dimensions      [1 -3 0 0 0 0 0];

internalField   nonuniform List<scalar> 
500
(
0.000453999
0.000454056
0.000454162
0.000454328
0.000454569
0.0004549
0.000455336
0.000455892
0.000456583
0.000457425
0.000458434
0.000459627
0.000461019
0.000462629
0.000464475
0.000466574
0.000468948
0.000471617
0.000474603
0.00047793
0.000481621
0.000485704
0.000490209
0.000495165
0.000500608
0.000506573
0.000513102
0.000520238
0.000528031
0.000536534
0.000545808
0.000555918
0.000566939
0.000578954
0.000592057
0.000606351
0.000621957
0.000639009
0.000657661
0.000678087
0.000700489
0.000725098
0.000752182
0.000782051
0.000815091
0.000851531
0.000891184
0.000933755
0.000979117
0.00102744
0.00107891
0.00113375
0.0011922
0.00125451
0.00132098
0.00139189
0.00146757
0.00154838
0.0016347
0.00172694
0.00182553
0.00193094
0.00204369
0.00216434
0.00229346
0.0024317
0.00257975
0.00273835
0.00290829
0.00309043
0.00328571
0.00349511
0.00371969
0.00396063
0.00421915
0.00449658
0.00479435
0.005114
0.00545717
0.00582564
0.00622128
0.00664613
0.00710236
0.00759229
0.00811841
0.00868336
0.00929
0.00994132
0.0106406
0.0113912
0.0121969
0.0130615
0.0139892
0.0149845
0.0160521
0.017197
0.0184247
0.0197409
0.0211516
0.0226633
0.0242827
0.0260166
0.0278727
0.0298585
0.0319821
0.0342521
0.0366774
0.0392676
0.0420329
0.0449843
0.0481331
0.0514901
0.0550675
0.0588767
0.0629296
0.067239
0.0718186
0.0766847
0.0818539
0.0873427
0.0931664
0.0993412
0.105882
0.112808
0.120144
0.127912
0.136135
0.144832
0.15402
0.163726
0.173989
0.184836
0.196291
0.208372
0.221111
0.234574
0.248791
0.263781
0.27956
0.296233
0.313846
0.332422
0.351965
0.372647
0.394516
0.41755
0.441861
0.467639
0.494887
0.523606
0.554102
0.586376
0.62053
0.656961
0.695336
0.736497
0.779706
0.826362
0.875002
0.927873
0.982769
1.043
1.10525
1.17416
1.24493
1.32392
1.40462
1.49516
1.58755
1.69094
1.79731
1.91524
2.0383
2.17301
2.31578
2.47111
2.63814
2.81852
3.01296
3.22271
3.44942
3.69693
3.97791
4.31707
4.58098
4.6796
4.51839
3.39416
1.58774
1.19367
1.16249
1.16105
1.161
1.161
1.161
1.161
1.161
1.161
1.161
1.161
1.161
1.161
1.161
1.161
1.161
1.161
1.161
1.161
1.161
1.161
1.161
1.161
1.161
1.161
1.161
1.161
1.161
1.161
1.161
1.161
1.161
1.161
1.161
1.161
1.161
1.161
1.161
1.161
1.161
1.161
1.161
1.161
1.161
1.161
1.161
1.161
1.161
1.161
1.161
1.161
1.161
1.161
1.161
1.161
1.161
1.161
1.161
1.161
1.161
1.161
1.161
1.161
1.161
1.161
1.161
1.161
1.161
1.161
1.161
1.161
1.161
1.161
1.161
1.161
1.161
1.161
1.161
1.161
1.161
1.161
1.161
1.161
1.161
1.161
1.161
1.161
1.161
1.161
1.161
1.161
1.161
1.161
1.161
1.161
1.161
1.161
1.161
1.161
1.161
1.161
1.161
1.161
1.161
1.161
1.161
1.161
1.161
1.161
1.161
1.161
1.161
1.161
1.161
1.161
1.161
1.161
1.161
1.161
1.161
1.161
1.161
1.161
1.161
1.161
1.161
1.161
1.161
1.161
1.161
1.161
1.161
1.161
1.161
1.161
1.161
1.161
1.161
1.161
1.161
1.161
1.161
1.161
1.161
1.161
1.161
1.161
1.161
1.161
1.161
1.161
1.161
1.161
1.161
1.161
1.161
1.161
1.161
1.161
1.161
1.161
1.161
1.161
1.161
1.161
1.161
1.161
1.161
1.161
1.161
1.161
1.161
1.161
1.161
1.161
1.161
1.161
1.161
1.161
1.161
1.161
1.161
1.161
1.161
1.161
1.161
1.161
1.161
1.161
1.161
1.161
1.161
1.161
1.161
1.161
1.161
1.161
1.161
1.161
1.161
1.161
1.161
1.161
1.161
1.161
1.161
1.161
1.161
1.161
1.161
1.161
1.161
1.161
1.161
1.161
1.161
1.161
1.161
1.161
1.161
1.161
1.161
1.161
1.161
1.161
1.161
1.161
1.161
1.161
1.161
1.161
1.161
1.161
1.161
1.161
1.161
1.161
1.161
1.161
1.161
1.161
1.161
1.161
1.161
1.161
1.161
1.161
1.161
1.161
1.161
1.161
1.161
1.161
1.161
1.161
1.161
1.161
1.161
1.161
1.161
1.161
1.161
1.161
1.161
1.161
1.161
1.161
1.161
1.161
1.161
1.161
1.161
1.161
1.161
1.161
1.161
1.161
1.161
1.161
1.161
1.161
1.161
1.161
1.161
1.161
1.161
1.161
1.161
1.161
1.161
1.161
1.161
1.161
1.161
1.161
1.161
1.161
1.161
1.161
1.161
1.161
1.161
1.161
1.161
1.161
1.161
1.161
1.161
1.161
1.161
1.161
)
;

boundaryField
{
    wedge0
    {
        type            wedge;
    }
    wedge1
    {
        type            wedge;
    }
    wedge2
    {
        type            wedge;
    }
    wedge3
    {
        type            wedge;
    }
    outlet
    {
        type            zeroGradient;
    }
    defaultFaces
    {
        type            empty;
    }
}


// ************************************************************************* //
