/*--------------------------------*- C++ -*----------------------------------*\
| =========                 |                                                 |
| \\      /  F ield         | OpenFOAM: The Open Source CFD Toolbox           |
|  \\    /   O peration     | Version:  2312                                  |
|   \\  /    A nd           | Website:  www.openfoam.com                      |
|    \\/     M anipulation  |                                                 |
\*---------------------------------------------------------------------------*/
FoamFile
{
    version     2.0;
    format      ascii;
    arch        "LSB;label=32;scalar=64";
    class       volScalarField;
    location    "5e-05";
    object      T;
}
// * * * * * * * * * * * * * * * * * * * * * * * * * * * * * * * * * * * * * //

dimensions      [0 0 0 1 0 0 0];

internalField   nonuniform List<scalar> 
500
(
6.16998e+06
6.16931e+06
6.16794e+06
6.16572e+06
6.16248e+06
6.15802e+06
6.15214e+06
6.14466e+06
6.13538e+06
6.12411e+06
6.11066e+06
6.09483e+06
6.07645e+06
6.05533e+06
6.0313e+06
6.00418e+06
5.97382e+06
5.94005e+06
5.90271e+06
5.86166e+06
5.81677e+06
5.76791e+06
5.71494e+06
5.65778e+06
5.5963e+06
5.53044e+06
5.46011e+06
5.38525e+06
5.30582e+06
5.22177e+06
5.13309e+06
5.03977e+06
4.94184e+06
4.83932e+06
4.73226e+06
4.62074e+06
4.50483e+06
4.38466e+06
4.26035e+06
4.13205e+06
3.99994e+06
3.86422e+06
3.72512e+06
3.58288e+06
3.43782e+06
3.29066e+06
3.14416e+06
3.00101e+06
2.86194e+06
2.72734e+06
2.59725e+06
2.47164e+06
2.35049e+06
2.23376e+06
2.1214e+06
2.01334e+06
1.90953e+06
1.80989e+06
1.71433e+06
1.62279e+06
1.53517e+06
1.45137e+06
1.37131e+06
1.29489e+06
1.222e+06
1.15254e+06
1.0864e+06
1.02349e+06
963696
906908
853021
801927
753521
707698
664352
623382
584685
548162
513716
481251
450673
421893
394821
369373
345465
323018
301955
282199
263682
246333
230086
214880
200653
187348
174911
163290
152434
142298
132837
124007
115769
108086
100920
94240.2
88013.2
82209.7
76802
71764.1
67071.7
62701.8
58632.8
54843.6
51315.4
48029.8
44970
42120.2
39466
36994.2
34692.1
32547.7
30549.4
28686.8
26949.7
25329.4
23818.2
22408.6
21092.9
19864.4
18716.2
17643.1
16640.5
15703.4
14826.8
14005.8
13236.8
12517.3
11843.5
11211.6
10618
10061.5
9539.79
9049.46
8587.54
8154.01
7746.77
7362.59
7000.15
6659.92
6338.99
6034.85
5749.33
5479.78
5223.56
4984.69
4754.29
4542.66
4334.79
4147.21
3959.84
3793.07
3624.82
3476.11
3324.53
3191.96
3055.26
2936.94
2813.64
2707.64
2596.6
2501.08
2401.77
2315.4
2227.22
2148.81
2071.99
2001.4
1934.08
1870.89
1811.32
1755.4
1703.27
1655.68
1614.07
1577.78
1537.71
1482.66
1383.33
1142.04
546.589
309.927
300.244
300.007
300
300
300
300
300
300
300
300
300
300
300
300
300
300
300
300
300
300
300
300
300
300
300
300
300
300
300
300
300
300
300
300
300
300
300
300
300
300
300
300
300
300
300
300
300
300
300
300
300
300
300
300
300
300
300
300
300
300
300
300
300
300
300
300
300
300
300
300
300
300
300
300
300
300
300
300
300
300
300
300
300
300
300
300
300
300
300
300
300
300
300
300
300
300
300
300
300
300
300
300
300
300
300
300
300
300
300
300
300
300
300
300
300
300
300
300
300
300
300
300
300
300
300
300
300
300
300
300
300
300
300
300
300
300
300
300
300
300
300
300
300
300
300
300
300
300
300
300
300
300
300
300
300
300
300
300
300
300
300
300
300
300
300
300
300
300
300
300
300
300
300
300
300
300
300
300
300
300
300
300
300
300
300
300
300
300
300
300
300
300
300
300
300
300
300
300
300
300
300
300
300
300
300
300
300
300
300
300
300
300
300
300
300
300
300
300
300
300
300
300
300
300
300
300
300
300
300
300
300
300
300
300
300
300
300
300
300
300
300
300
300
300
300
300
300
300
300
300
300
300
300
300
300
300
300
300
300
300
300
300
300
300
300
300
300
300
300
300
300
300
300
300
300
300
300
300
300
300
300
300
300
300
300
300
300
300
300
300
300
300
300
300
300
300
300
300
300
300
300
300
300
300
300
300
300
300
300
300
)
;

boundaryField
{
    wedge0
    {
        type            wedge;
    }
    wedge1
    {
        type            wedge;
    }
    wedge2
    {
        type            wedge;
    }
    wedge3
    {
        type            wedge;
    }
    outlet
    {
        type            zeroGradient;
    }
    defaultFaces
    {
        type            empty;
    }
}


// ************************************************************************* //
