/*--------------------------------*- C++ -*----------------------------------*\
| =========                 |                                                 |
| \\      /  F ield         | OpenFOAM: The Open Source CFD Toolbox           |
|  \\    /   O peration     | Version:  2312                                  |
|   \\  /    A nd           | Website:  www.openfoam.com                      |
|    \\/     M anipulation  |                                                 |
\*---------------------------------------------------------------------------*/
FoamFile
{
    version     2.0;
    format      ascii;
    arch        "LSB;label=32;scalar=64";
    class       volScalarField;
    location    "5e-05";
    object      thermo:e;
}
// * * * * * * * * * * * * * * * * * * * * * * * * * * * * * * * * * * * * * //

dimensions      [0 2 -2 0 0 0 0];

internalField   nonuniform List<scalar> 
500
(
4.42819e+09
4.42771e+09
4.42673e+09
4.42514e+09
4.42281e+09
4.41961e+09
4.41539e+09
4.41003e+09
4.40337e+09
4.39527e+09
4.38562e+09
4.37426e+09
4.36107e+09
4.34591e+09
4.32866e+09
4.3092e+09
4.28741e+09
4.26317e+09
4.23637e+09
4.20692e+09
4.1747e+09
4.13963e+09
4.10162e+09
4.06059e+09
4.01647e+09
3.9692e+09
3.91872e+09
3.865e+09
3.80798e+09
3.74766e+09
3.68402e+09
3.61705e+09
3.54676e+09
3.47318e+09
3.39635e+09
3.3163e+09
3.23312e+09
3.14687e+09
3.05765e+09
2.96557e+09
2.87076e+09
2.77335e+09
2.67352e+09
2.57143e+09
2.46733e+09
2.36171e+09
2.25656e+09
2.15383e+09
2.05401e+09
1.95742e+09
1.86405e+09
1.77389e+09
1.68695e+09
1.60317e+09
1.52253e+09
1.44498e+09
1.37047e+09
1.29896e+09
1.23038e+09
1.16468e+09
1.10179e+09
1.04165e+09
9.84191e+08
9.2934e+08
8.77026e+08
8.27175e+08
7.79712e+08
7.34561e+08
6.91645e+08
6.50888e+08
6.12213e+08
5.75543e+08
5.40802e+08
5.07915e+08
4.76806e+08
4.47401e+08
4.19628e+08
3.93416e+08
3.68694e+08
3.45394e+08
3.23448e+08
3.02792e+08
2.83363e+08
2.65099e+08
2.47941e+08
2.3183e+08
2.16713e+08
2.02535e+08
1.89244e+08
1.76793e+08
1.65133e+08
1.54219e+08
1.44009e+08
1.3446e+08
1.25534e+08
1.17193e+08
1.09402e+08
1.02127e+08
9.53368e+07
8.89998e+07
8.30876e+07
7.75731e+07
7.24306e+07
6.76362e+07
6.31671e+07
5.90019e+07
5.51208e+07
5.15051e+07
4.81374e+07
4.50011e+07
4.20808e+07
3.93613e+07
3.68291e+07
3.4471e+07
3.2275e+07
3.02297e+07
2.83247e+07
2.65507e+07
2.48985e+07
2.33595e+07
2.19253e+07
2.05885e+07
1.93418e+07
1.81789e+07
1.70943e+07
1.60826e+07
1.51384e+07
1.42567e+07
1.34326e+07
1.26624e+07
1.19429e+07
1.12703e+07
1.06412e+07
1.0052e+07
9.50004e+06
8.98366e+06
8.50008e+06
8.04653e+06
7.6205e+06
7.22114e+06
6.8467e+06
6.4948e+06
6.16328e+06
5.85213e+06
5.55986e+06
5.28413e+06
5.02401e+06
4.77983e+06
4.54949e+06
4.33121e+06
4.12629e+06
3.93284e+06
3.74895e+06
3.57751e+06
3.41215e+06
3.26027e+06
3.11108e+06
2.97645e+06
2.84198e+06
2.72228e+06
2.60153e+06
2.49481e+06
2.38601e+06
2.29087e+06
2.19276e+06
2.10784e+06
2.01935e+06
1.94328e+06
1.86358e+06
1.79503e+06
1.72375e+06
1.66176e+06
1.59848e+06
1.5422e+06
1.48707e+06
1.43641e+06
1.38809e+06
1.34274e+06
1.29999e+06
1.25985e+06
1.22244e+06
1.18828e+06
1.15842e+06
1.13237e+06
1.10362e+06
1.0641e+06
992816
819639
392287
222435
215485
215315
215310
215310
215310
215310
215310
215310
215310
215310
215310
215310
215310
215310
215310
215310
215310
215310
215310
215310
215310
215310
215310
215310
215310
215310
215310
215310
215310
215310
215310
215310
215310
215310
215310
215310
215310
215310
215310
215310
215310
215310
215310
215310
215310
215310
215310
215310
215310
215310
215310
215310
215310
215310
215310
215310
215310
215310
215310
215310
215310
215310
215310
215310
215310
215310
215310
215310
215310
215310
215310
215310
215310
215310
215310
215310
215310
215310
215310
215310
215310
215310
215310
215310
215310
215310
215310
215310
215310
215310
215310
215310
215310
215310
215310
215310
215310
215310
215310
215310
215310
215310
215310
215310
215310
215310
215310
215310
215310
215310
215310
215310
215310
215310
215310
215310
215310
215310
215310
215310
215310
215310
215310
215310
215310
215310
215310
215310
215310
215310
215310
215310
215310
215310
215310
215310
215310
215310
215310
215310
215310
215310
215310
215310
215310
215310
215310
215310
215310
215310
215310
215310
215310
215310
215310
215310
215310
215310
215310
215310
215310
215310
215310
215310
215310
215310
215310
215310
215310
215310
215310
215310
215310
215310
215310
215310
215310
215310
215310
215310
215310
215310
215310
215310
215310
215310
215310
215310
215310
215310
215310
215310
215310
215310
215310
215310
215310
215310
215310
215310
215310
215310
215310
215310
215310
215310
215310
215310
215310
215310
215310
215310
215310
215310
215310
215310
215310
215310
215310
215310
215310
215310
215310
215310
215310
215310
215310
215310
215310
215310
215310
215310
215310
215310
215310
215310
215310
215310
215310
215310
215310
215310
215310
215310
215310
215310
215310
215310
215310
215310
215310
215310
215310
215310
215310
215310
215310
215310
215310
215310
215310
215310
215310
215310
215310
215310
215310
215310
215310
215310
215310
215310
215310
215310
215310
215310
215310
215310
215310
215310
215310
215310
215310
215310
215310
215310
215310
215310
215310
215310
215310
215310
215310
215310
215310
215310
215310
215310
215310
215310
215310
215310
215310
215310
215310
215310
215310
215310
215310
215310
)
;

boundaryField
{
    wedge0
    {
        type            wedge;
    }
    wedge1
    {
        type            wedge;
    }
    wedge2
    {
        type            wedge;
    }
    wedge3
    {
        type            wedge;
    }
    outlet
    {
        type            zeroGradient;
    }
    defaultFaces
    {
        type            empty;
    }
}


// ************************************************************************* //
