/*--------------------------------*- C++ -*----------------------------------*\
| =========                 |                                                 |
| \\      /  F ield         | OpenFOAM: The Open Source CFD Toolbox           |
|  \\    /   O peration     | Version:  2312                                  |
|   \\  /    A nd           | Website:  www.openfoam.com                      |
|    \\/     M anipulation  |                                                 |
\*---------------------------------------------------------------------------*/
FoamFile
{
    version     2.0;
    format      ascii;
    arch        "LSB;label=32;scalar=64";
    class       volVectorField;
    location    "5e-05";
    object      U;
}
// * * * * * * * * * * * * * * * * * * * * * * * * * * * * * * * * * * * * * //

dimensions      [0 1 -1 0 0 0 0];

internalField   nonuniform List<vector> 
500
(
(4.47003 -1.32988e-08 1.40108e-08)
(9.09076 -1.36707e-08 1.43995e-08)
(14.2576 -1.42392e-08 1.4978e-08)
(19.5588 -1.50485e-08 1.57905e-08)
(24.9136 -1.47566e-08 1.54736e-08)
(30.2984 -1.50976e-08 1.58001e-08)
(35.7039 -1.51279e-08 1.58159e-08)
(41.1255 -1.53939e-08 1.60341e-08)
(46.5576 -1.49417e-08 1.5544e-08)
(51.9999 -1.39608e-08 1.45306e-08)
(57.4513 -1.28669e-08 1.34185e-08)
(62.9086 -1.16229e-08 1.2172e-08)
(68.3727 -1.02536e-08 1.0795e-08)
(73.8479 -8.74309e-09 9.25245e-09)
(79.3321 -7.00481e-09 7.45034e-09)
(84.83 -5.13657e-09 5.52157e-09)
(90.3411 -3.16724e-09 3.50332e-09)
(95.8698 -1.93718e-09 2.24333e-09)
(101.417 -9.09841e-10 1.19111e-09)
(106.984 -3.70101e-10 5.76929e-10)
(112.574 -1.86357e-10 3.24843e-10)
(118.189 -1.52969e-10 4.10011e-10)
(123.831 -4.76942e-10 7.37233e-10)
(129.503 -9.178e-10 1.15076e-09)
(135.207 -1.13865e-09 1.34737e-09)
(140.947 -1.1345e-09 1.3214e-09)
(146.725 -1.29466e-09 1.45907e-09)
(152.546 -1.67342e-09 1.83843e-09)
(158.414 -1.44521e-09 1.60085e-09)
(164.335 -1.34543e-09 1.48593e-09)
(170.312 -1.40271e-09 1.5154e-09)
(176.35 -1.63006e-09 1.72752e-09)
(182.456 -1.40974e-09 1.49168e-09)
(188.634 -1.10124e-09 1.16489e-09)
(194.891 -9.13797e-10 9.55934e-10)
(201.232 -8.65164e-10 8.65193e-10)
(207.665 -7.97915e-10 7.97917e-10)
(214.196 -8.24366e-10 8.24366e-10)
(220.833 -8.85536e-10 8.85536e-10)
(227.586 -1.0887e-09 1.0887e-09)
(234.465 -1.15596e-09 1.15596e-09)
(241.482 -1.08505e-09 1.08505e-09)
(248.647 -1.03143e-09 1.03143e-09)
(255.786 -9.80259e-10 9.80259e-10)
(262.549 -9.6441e-10 9.6441e-10)
(266.342 -9.54331e-10 9.54331e-10)
(266.285 -9.44764e-10 9.44764e-10)
(267.512 -9.24054e-10 9.24054e-10)
(271.542 -8.91599e-10 8.91599e-10)
(276.439 -8.37809e-10 8.37809e-10)
(281.451 -6.91557e-10 6.91557e-10)
(286.627 -5.88245e-10 5.88245e-10)
(291.806 -4.37372e-10 4.37372e-10)
(297.021 -3.13072e-10 3.13072e-10)
(302.234 -1.98049e-10 1.98049e-10)
(307.453 -1.27405e-10 1.27405e-10)
(312.673 -1.35499e-10 1.35499e-10)
(317.895 -8.55047e-11 8.55047e-11)
(323.117 -1.17407e-10 1.17407e-10)
(328.34 5.94628e-11 -5.94628e-11)
(333.565 1.15252e-11 -1.15252e-11)
(338.791 1.64262e-12 -1.64262e-12)
(344.02 1.65687e-12 -1.65687e-12)
(349.251 1.58829e-12 -1.58829e-12)
(354.485 0 1.84894e-31)
(359.724 1.96795e-11 -1.96795e-11)
(364.967 -1.04922e-11 1.04922e-11)
(370.214 6.40789e-11 -6.40789e-11)
(375.47 4.50141e-11 -4.50141e-11)
(380.728 2.47189e-11 -2.47189e-11)
(386.001 9.9027e-12 -9.9027e-12)
(391.273 9.7967e-12 -9.7967e-12)
(396.565 1.31489e-12 -1.31489e-12)
(401.85 8.19677e-12 -8.19677e-12)
(407.158 -1.47142e-11 1.47142e-11)
(412.455 1.02611e-11 -1.02611e-11)
(417.774 1.43298e-11 -1.43298e-11)
(423.074 1.41422e-11 -1.41422e-11)
(428.4 6.47192e-12 -6.47192e-12)
(433.705 1.25015e-12 -1.24936e-12)
(439.035 6.2104e-12 -6.21167e-12)
(444.356 -1.28874e-12 1.28881e-12)
(449.691 2.3943e-11 -2.40026e-11)
(455.035 5.98983e-12 -5.99024e-12)
(460.38 1.54425e-11 -1.5443e-11)
(465.742 4.21871e-12 2.59524e-12)
(471.099 2.95429e-12 -6.47553e-12)
(476.47 -5.99536e-12 -3.62115e-12)
(481.836 -5.44468e-12 5.4445e-12)
(487.212 -5.97474e-13 5.97415e-13)
(492.583 -6.23663e-12 9.959e-12)
(497.963 -8.47366e-12 4.92987e-12)
(503.35 -5.79435e-13 4.46973e-12)
(508.749 -7.40763e-12 8.15247e-12)
(514.16 -3.72529e-12 7.9335e-12)
(519.587 -2.52646e-12 3.68644e-12)
(525.012 -7.57871e-12 7.49111e-12)
(530.431 -3.36154e-12 5.53768e-13)
(535.852 -5.30875e-12 5.56351e-12)
(541.276 1.06607e-12 -3.65974e-12)
(546.706 -2.80062e-12 3.068e-12)
(552.147 3.4742e-12 -2.97217e-12)
(557.589 -3.12445e-12 3.07396e-12)
(563.037 2.89017e-12 -3.0639e-12)
(568.487 -2.79702e-12 2.79302e-12)
(573.963 3.84216e-12 -3.82027e-12)
(579.467 -2.42732e-12 2.38278e-12)
(584.981 2.23727e-12 -2.23726e-12)
(590.49 -8.4893e-14 4.11949e-13)
(595.984 2.32143e-12 -2.32132e-12)
(601.436 -8.42749e-13 -4.04378e-14)
(606.93 2.27781e-12 -2.43861e-12)
(612.42 1.3331e-12 -1.68705e-12)
(617.94 1.3869e-12 -1.56517e-12)
(623.499 1.94198e-12 -2.29617e-12)
(629.105 3.32073e-12 -3.39267e-12)
(634.756 2.9678e-12 -3.05944e-12)
(640.371 2.00164e-12 -2.03169e-12)
(645.93 1.88114e-12 -1.90566e-12)
(651.467 1.80577e-12 -1.91386e-12)
(657.034 2.63845e-13 -2.63831e-13)
(662.653 1.49147e-12 -1.4915e-12)
(668.384 1.65106e-12 -1.65381e-12)
(674.186 1.06696e-12 -1.13812e-12)
(679.941 3.50162e-13 -3.75542e-13)
(685.574 3.69036e-13 -3.00224e-13)
(691.208 3.78751e-13 -4.48141e-13)
(696.913 7.14461e-14 -2.00634e-15)
(702.778 2.5322e-13 -2.532e-13)
(708.769 -4.24202e-14 -5.81692e-14)
(714.621 1.50945e-13 6.95832e-14)
(720.37 -1.03397e-13 -4.44545e-13)
(726.161 8.15218e-13 -3.19447e-13)
(732.165 5.04535e-13 -5.76234e-13)
(738.351 5.8981e-13 -8.38852e-13)
(744.349 1.32066e-13 -2.48508e-13)
(750.24 1.35781e-13 -4.86945e-13)
(756.273 3.5019e-13 -4.24544e-13)
(762.645 2.61993e-13 -2.44281e-13)
(768.963 2.88495e-13 -2.77518e-13)
(774.996 8.49961e-14 -6.84801e-14)
(781.205 2.40203e-13 -2.31881e-13)
(787.864 3.71721e-14 -2.88878e-14)
(794.373 3.44509e-14 -1.34353e-14)
(800.593 -8.36293e-14 8.93672e-14)
(807.211 -6.61481e-14 8.6631e-14)
(814.196 -1.87198e-13 1.88187e-13)
(820.66 -8.12936e-14 8.25558e-14)
(827.383 -1.60655e-13 1.61508e-13)
(834.708 -1.10649e-13 1.12178e-13)
(841.427 4.65423e-14 -4.64875e-14)
(848.427 -3.80103e-14 3.9832e-14)
(856.159 -1.35024e-13 1.34891e-13)
(862.991 1.66531e-14 -1.6908e-14)
(871.282 -1.3193e-14 1.33113e-14)
(878.051 -7.95734e-14 7.94616e-14)
(887.079 4.17887e-14 -4.19562e-14)
(893.669 -1.14651e-13 1.14594e-13)
(903.334 1.85412e-14 -1.88888e-14)
(909.847 -7.83108e-14 7.81681e-14)
(920.138 -7.10197e-14 7.06599e-14)
(926.67 -1.0041e-13 1.00417e-13)
(937.673 2.14893e-14 -2.14854e-14)
(944.212 -8.57555e-14 8.58243e-14)
(955.94 -9.56709e-14 9.55871e-14)
(962.542 -7.97354e-14 7.98244e-14)
(974.818 -9.92804e-14 9.92774e-14)
(981.652 -6.40466e-14 6.42308e-14)
(994.067 -5.88017e-14 5.88117e-14)
(1001.47 -6.53369e-14 6.54266e-14)
(1013.57 -3.19467e-14 3.21546e-14)
(1021.99 -5.74616e-14 5.74537e-14)
(1033.66 -5.38985e-14 5.38228e-14)
(1043.19 -2.64933e-14 2.64788e-14)
(1054.54 -3.0381e-14 3.03077e-14)
(1065.5 -3.589e-14 3.5831e-14)
(1077.1 -4.03733e-14 4.03498e-14)
(1088.87 -1.90513e-14 1.90375e-14)
(1100.95 -4.69127e-14 4.68916e-14)
(1113.3 -3.98905e-14 3.98718e-14)
(1126.06 -1.84023e-14 1.83854e-14)
(1139.87 -1.32451e-14 1.32282e-14)
(1156.92 -1.02868e-14 1.02711e-14)
(1179.77 -2.96197e-15 2.95048e-15)
(1187.19 0 0)
(1174.82 0 0)
(1103.86 0 0)
(844.428 0 0)
(235.029 0 0)
(15.433 1.94379e-15 -1.94379e-15)
(0.53556 8.74389e-15 -8.74389e-15)
(0.017547 1.39965e-15 -1.39965e-15)
(0.000570677 0 0)
(1.8488e-05 -4.03821e-15 4.03821e-15)
(5.9677e-07 3.95593e-15 -3.95593e-15)
(1.91795e-08 0 0)
(6.05255e-10 -5.84414e-15 5.84414e-15)
(9.51634e-12 0 0)
(-1.01847e-11 2.52732e-15 -2.52019e-15)
(-1.04728e-11 1.30396e-14 -1.30229e-14)
(-6.11002e-12 1.26015e-14 -1.25795e-14)
(7.69115e-12 3.42131e-15 -3.40905e-15)
(8.38895e-12 0 0)
(3.68137e-12 -5.6767e-15 5.6767e-15)
(3.89785e-11 -1.16384e-14 1.16384e-14)
(4.2014e-11 -1.17382e-14 1.17382e-14)
(1.91201e-11 -5.69426e-15 5.69426e-15)
(2.76645e-12 -5.79446e-15 5.79446e-15)
(-1.95051e-11 9.90334e-17 -9.90334e-17)
(-2.17282e-11 0 0)
(-5.43061e-12 0 0)
(2.92581e-11 -4.42125e-15 4.42125e-15)
(-3.8469e-11 -2.76152e-14 2.76152e-14)
(-7.02374e-11 -2.74397e-14 2.74397e-14)
(-3.66045e-11 -3.32757e-14 3.32757e-14)
(5.74936e-12 -3.31315e-14 3.31315e-14)
(-9.47627e-14 -2.33236e-14 2.33236e-14)
(3.597e-11 -7.87644e-15 7.87644e-15)
(8.01776e-11 0 0)
(1.14145e-10 0 0)
(6.48001e-11 0 0)
(-1.97654e-11 0 0)
(5.36627e-13 3.87149e-16 -3.87149e-16)
(-2.94829e-11 5.27043e-15 -5.27043e-15)
(-4.05116e-11 1.80126e-14 -1.80126e-14)
(-5.21332e-11 1.88957e-15 -1.88957e-15)
(-2.36569e-11 -5.76066e-15 5.76066e-15)
(5.34983e-12 -2.48793e-14 2.48793e-14)
(1.86598e-11 -2.13254e-14 2.13254e-14)
(-2.71982e-13 -2.21115e-14 2.21115e-14)
(-2.86365e-11 -2.70229e-14 2.70229e-14)
(-2.64988e-11 -2.21049e-14 2.21049e-14)
(2.36354e-11 -4.60752e-15 4.60752e-15)
(1.14466e-11 0 0)
(-2.5361e-11 0 0)
(-3.27929e-11 0 0)
(-2.35282e-11 0 0)
(2.39404e-11 0 0)
(1.08623e-11 0 0)
(-3.6298e-12 -6.78087e-15 6.78087e-15)
(2.38469e-11 -1.59158e-14 1.59158e-14)
(2.81708e-11 -7.03986e-15 7.03986e-15)
(1.1088e-11 -5.72716e-15 5.72716e-15)
(-1.12026e-11 2.35966e-14 -2.35966e-14)
(8.95688e-12 2.57531e-14 -2.57531e-14)
(2.75369e-11 2.33237e-14 -2.33237e-14)
(1.66735e-11 9.7094e-15 -9.7094e-15)
(-2.05738e-11 4.92232e-15 -4.92232e-15)
(-2.85582e-11 6.52179e-15 -6.52179e-15)
(-7.95119e-12 -3.36015e-15 3.36015e-15)
(5.04304e-12 -8.02135e-16 8.02135e-16)
(1.22002e-11 0 0)
(2.04276e-11 0 0)
(1.12994e-11 0 0)
(-2.95678e-11 0 0)
(-4.28502e-11 0 0)
(-2.67146e-11 -3.24689e-15 3.24689e-15)
(3.53801e-12 -1.45021e-14 1.45021e-14)
(3.26076e-12 -5.32134e-15 5.32134e-15)
(-8.59679e-12 -1.29851e-15 1.29851e-15)
(-1.13384e-11 0 0)
(-1.71659e-12 0 0)
(8.64888e-12 3.91409e-15 -3.91409e-15)
(1.9449e-11 9.67726e-15 -9.67726e-15)
(1.99295e-11 2.34908e-14 -2.34908e-14)
(-5.67291e-12 2.28697e-14 -2.28697e-14)
(-6.95823e-12 2.51385e-14 -2.51385e-14)
(3.78036e-12 1.787e-14 -1.787e-14)
(3.5143e-12 1.01212e-14 -1.01212e-14)
(6.20373e-12 3.72413e-15 -3.72413e-15)
(-1.12164e-12 4.1513e-16 -4.1513e-16)
(5.13805e-12 0 0)
(1.1859e-11 0 0)
(-2.28116e-11 -1.26763e-15 1.26763e-15)
(-2.62668e-11 -4.85619e-15 4.85619e-15)
(-2.03207e-11 -1.14875e-14 1.14875e-14)
(4.5647e-12 -2.80762e-15 2.80762e-15)
(1.40943e-11 0 0)
(1.11722e-11 0 0)
(9.28505e-12 0 0)
(7.48835e-12 3.82274e-15 -3.82274e-15)
(9.7499e-12 8.58549e-15 -8.58549e-15)
(7.4345e-12 1.75058e-14 -1.75058e-14)
(1.29557e-11 7.28069e-15 -7.28069e-15)
(-2.28045e-11 -1.19673e-14 1.19673e-14)
(-2.97353e-11 -8.36857e-15 8.36857e-15)
(-1.79978e-12 -5.64569e-15 5.64569e-15)
(1.77932e-11 -5.68557e-15 5.68557e-15)
(3.48288e-12 -7.28178e-15 7.28178e-15)
(-1.50228e-11 -2.56393e-15 2.56393e-15)
(-8.72591e-12 0 0)
(-9.14219e-12 1.95976e-15 -1.95976e-15)
(-8.70621e-12 -4.75864e-15 4.75864e-15)
(-6.3869e-12 -1.05313e-15 1.05313e-15)
(-5.81529e-12 1.22327e-15 -1.22327e-15)
(1.80149e-11 6.02685e-15 -6.02685e-15)
(2.45266e-11 -2.24649e-15 2.24649e-15)
(1.82342e-11 -2.23913e-16 2.23913e-16)
(7.39837e-12 0 0)
(5.71903e-12 -1.03035e-16 1.03035e-16)
(-1.57088e-11 -5.58596e-15 5.58596e-15)
(-2.23274e-11 -1.63841e-15 1.63841e-15)
(-6.64605e-12 -4.474e-15 4.474e-15)
(-8.21807e-13 0 0)
(1.47523e-11 4.16146e-15 -4.16146e-15)
(1.89731e-11 0 0)
(1.0264e-11 0 0)
(-5.31959e-12 -3.98361e-15 3.98361e-15)
(-1.78276e-11 -9.89551e-15 9.89551e-15)
(-1.33667e-11 -1.10341e-14 1.10341e-14)
(2.36486e-11 -3.88066e-15 3.88066e-15)
(4.67179e-11 0 0)
(5.53702e-11 0 0)
(3.82369e-11 0 0)
(-3.45531e-11 6.01555e-15 -6.01555e-15)
(-4.21846e-11 1.88186e-15 -1.88186e-15)
(-3.22115e-11 0 0)
(-2.5678e-11 -8.17461e-15 8.17461e-15)
(1.00606e-11 -1.49353e-14 1.49353e-14)
(2.87512e-11 -2.38195e-14 2.38195e-14)
(5.90374e-12 -2.94222e-14 2.94222e-14)
(-1.82494e-11 -3.06065e-14 3.06065e-14)
(-2.91441e-12 -2.75812e-14 2.75812e-14)
(1.83558e-11 -2.89075e-14 2.89075e-14)
(1.80395e-11 -2.59192e-14 2.59192e-14)
(-1.97071e-11 -1.1405e-14 1.1405e-14)
(-2.83282e-11 -4.75969e-15 4.75969e-15)
(-2.06366e-11 0 0)
(3.38609e-12 2.70749e-15 -2.70749e-15)
(1.87527e-11 0 0)
(1.47742e-11 0 0)
(-9.23258e-12 0 0)
(-2.10878e-11 -1.7122e-15 1.7122e-15)
(-1.99513e-11 -6.38389e-15 6.38389e-15)
(-1.88451e-11 -5.87148e-15 5.87148e-15)
(-9.19497e-12 -1.36447e-15 1.36447e-15)
(8.36036e-12 0 0)
(2.12079e-11 0 0)
(2.61108e-11 0 0)
(3.39554e-12 0 0)
(-1.11212e-11 -9.92158e-18 9.92158e-18)
(-9.75526e-12 -3.59643e-15 3.59643e-15)
(-8.65836e-12 0 0)
(-1.12441e-11 5.6143e-16 -5.6143e-16)
(8.38057e-12 4.68751e-15 -4.68751e-15)
(2.74346e-11 2.27762e-15 -2.27762e-15)
(3.68644e-11 4.58565e-15 -4.58565e-15)
(3.07061e-11 -1.36244e-15 1.36244e-15)
(-2.16285e-11 -1.79697e-14 1.79697e-14)
(-1.8853e-11 -1.18016e-14 1.18016e-14)
(-9.18577e-12 -1.49818e-14 1.49818e-14)
(-1.69813e-11 -1.3093e-14 1.3093e-14)
(-1.61982e-11 -1.98829e-15 1.98829e-15)
(4.02037e-13 0 0)
(1.90428e-11 0 0)
(2.51388e-11 6.54078e-15 -6.54078e-15)
(-3.27848e-11 -4.01898e-15 4.01898e-15)
(-3.71411e-11 -1.19707e-14 1.19707e-14)
(-2.68844e-11 -1.28319e-14 1.28319e-14)
(-6.37223e-12 -6.89886e-15 6.89886e-15)
(1.33247e-11 -6.16277e-15 6.16277e-15)
(1.33806e-11 -1.78354e-15 1.78354e-15)
(1.97215e-11 0 0)
(1.61862e-11 -2.64085e-15 2.64085e-15)
(-1.35407e-12 1.37634e-16 -1.37634e-16)
(9.12515e-12 -2.47476e-15 2.47476e-15)
(1.83682e-11 0 0)
(8.5478e-12 2.23436e-15 -2.23436e-15)
(-1.19406e-11 0 0)
(-1.69833e-11 0 0)
(-1.58109e-11 -2.5532e-15 2.5532e-15)
(-9.06323e-12 -9.44156e-15 9.44156e-15)
(2.61897e-12 -1.19624e-14 1.19624e-14)
(1.18868e-11 -1.64666e-14 1.64666e-14)
(1.11502e-11 -1.8965e-14 1.8965e-14)
(6.68798e-12 -1.67554e-14 1.67554e-14)
(1.56907e-11 -6.42752e-15 6.42752e-15)
(2.52097e-11 -9.42525e-16 9.42525e-16)
(1.33123e-11 0 0)
(-1.17607e-11 3.80618e-15 -3.80618e-15)
(-1.68737e-11 1.33235e-15 -1.33235e-15)
(-2.36136e-11 2.95524e-15 -2.95524e-15)
(-1.5357e-11 1.68418e-16 -1.68418e-16)
(5.9249e-12 0 0)
(-3.1752e-11 -2.50756e-15 2.50756e-15)
(-3.9426e-11 0 0)
(-2.08017e-11 0 0)
(-4.30372e-12 9.8909e-16 -9.8909e-16)
(1.91755e-11 7.2538e-15 -7.2538e-15)
(3.18128e-11 7.41082e-15 -7.41082e-15)
(2.7953e-11 4.15892e-15 -4.15892e-15)
(2.70681e-11 1.55137e-16 -1.55137e-16)
(1.81311e-11 0 0)
(-2.98021e-12 2.91949e-15 -2.91949e-15)
(-6.42873e-12 0 0)
(-1.58358e-11 0 0)
(-3.36287e-11 0 0)
(-1.29415e-11 0 0)
(1.5164e-11 0 0)
(1.4629e-11 0 0)
(-1.00829e-11 0 0)
(-1.43471e-11 0 0)
(4.31267e-11 1.28091e-15 -1.28091e-15)
(5.47432e-11 8.43486e-15 -8.43486e-15)
(1.67758e-11 1.47987e-14 -1.47987e-14)
(-8.42869e-12 2.4862e-14 -2.4862e-14)
(7.58208e-14 2.46911e-14 -2.46911e-14)
(-1.99704e-11 1.47561e-14 -1.47561e-14)
(-2.30828e-11 3.73742e-15 -3.73742e-15)
(-2.05238e-11 5.99773e-16 -5.99773e-16)
(-1.98995e-11 0 0)
(-1.85077e-11 0 0)
(1.12069e-11 0 0)
(2.70359e-12 0 0)
(-2.13541e-11 0 0)
(-1.61599e-11 0 0)
(6.95096e-12 0 0)
(1.28777e-11 -1.29453e-16 1.29453e-16)
(5.41829e-13 -1.21663e-15 1.21663e-15)
(-8.80662e-12 2.00947e-15 -2.00947e-15)
(-1.47869e-11 0 0)
(-1.59253e-11 -1.30971e-15 1.30971e-15)
(-1.37975e-11 -5.46986e-15 5.46986e-15)
(1.1946e-11 -4.66461e-15 4.66461e-15)
(3.16142e-11 -6.27606e-15 6.27606e-15)
(2.46689e-11 -4.71953e-15 4.71953e-15)
(-1.67732e-11 -8.67275e-15 8.67275e-15)
(6.47547e-13 -4.2804e-15 4.2804e-15)
(1.8981e-11 -3.32163e-15 3.32163e-15)
(2.49486e-12 9.0696e-17 -9.0696e-17)
(-1.10718e-11 1.3425e-15 -1.3425e-15)
(1.33597e-11 3.30748e-15 -3.30748e-15)
(2.82851e-11 1.56592e-15 -1.56592e-15)
(8.58444e-12 2.3229e-15 -2.3229e-15)
(-2.42564e-11 6.74576e-16 -6.74576e-16)
(-8.75973e-12 1.42261e-15 -1.42261e-15)
(2.6762e-11 -2.44995e-15 2.44995e-15)
(4.06082e-11 -1.72659e-15 1.72659e-15)
(1.30903e-11 -3.60966e-15 3.60966e-15)
(-1.86768e-11 -8.32338e-15 8.32338e-15)
(-1.96517e-11 -1.69319e-14 1.69319e-14)
(-8.66957e-12 -1.33577e-14 1.33577e-14)
(-2.30799e-11 -2.85812e-15 2.85812e-15)
(-1.29306e-11 9.44516e-15 -9.44516e-15)
(-2.03552e-11 1.52738e-14 -1.52738e-14)
(-3.13374e-11 1.02237e-14 -1.02237e-14)
(2.36004e-11 5.35667e-15 -5.35667e-15)
(4.1042e-11 2.77364e-15 -2.77364e-15)
(2.23406e-11 2.4346e-15 -2.4346e-15)
(-1.89424e-11 1.15958e-14 -1.15958e-14)
(-1.24109e-12 3.28091e-15 -3.28091e-15)
(6.38293e-12 -2.44564e-15 2.44564e-15)
(7.48985e-12 -9.08078e-15 9.08078e-15)
(4.67745e-12 -4.42905e-15 4.42905e-15)
(-1.53743e-12 -1.89372e-15 1.89372e-15)
(-3.78112e-12 -2.81426e-15 2.81426e-15)
(7.40594e-13 -5.90479e-15 5.90479e-15)
(1.21099e-11 -1.23986e-14 1.23986e-14)
(1.02637e-11 -2.84073e-14 2.84073e-14)
(-1.83858e-11 -3.26591e-14 3.26591e-14)
(-1.78781e-11 -3.10829e-14 3.10829e-14)
(-8.42579e-12 -2.69261e-14 2.69261e-14)
(-4.60333e-13 -1.2404e-14 1.2404e-14)
(3.78279e-12 -7.26764e-15 7.26764e-15)
(-5.90916e-13 -3.05518e-15 3.05518e-15)
(1.67015e-12 0 0)
(1.41867e-11 0 0)
(2.28833e-11 0 0)
(5.61335e-12 0 0)
(-1.66348e-11 0 0)
(-1.13271e-11 0 0)
(1.12767e-11 1.54762e-15 -1.54762e-15)
(5.91884e-12 3.491e-15 -3.491e-15)
(-1.3843e-12 -5.47872e-15 5.47872e-15)
(-3.5324e-12 -1.19294e-14 1.19294e-14)
(2.5678e-12 -1.23422e-14 1.23422e-14)
(1.17054e-11 -1.24206e-14 1.24206e-14)
(3.14231e-12 -6.53825e-15 6.53825e-15)
(-3.29336e-12 1.22612e-15 -1.22612e-15)
(-1.7582e-11 7.18706e-15 -7.18706e-15)
(-2.46319e-11 1.37223e-15 -1.37223e-15)
(-9.89002e-12 0 0)
(1.68761e-11 0 0)
(1.92629e-11 0 0)
(4.66118e-12 -1.61484e-15 1.61484e-15)
(-1.14562e-11 -4.99586e-15 4.99586e-15)
(-1.18177e-11 -3.511e-18 3.511e-18)
(-2.60394e-12 -3.28589e-15 3.28589e-15)
(1.55835e-12 -1.17292e-14 1.17292e-14)
(-1.11122e-11 -2.07337e-14 2.07337e-14)
(-1.54534e-11 -2.25687e-14 2.25687e-14)
(-1.35394e-11 -1.99169e-14 1.99169e-14)
(7.62619e-12 -1.30592e-14 1.30592e-14)
(8.49478e-12 -6.14584e-15 6.14584e-15)
(1.15429e-11 -2.45512e-15 2.45512e-15)
(1.83009e-11 -2.96343e-15 2.96343e-15)
(1.45356e-11 -6.53954e-15 6.53954e-15)
(3.58458e-11 -8.8319e-15 8.8319e-15)
(3.22611e-11 -2.45772e-15 2.45772e-15)
(1.56938e-11 -3.12586e-16 3.12586e-16)
)
;

boundaryField
{
    wedge0
    {
        type            wedge;
    }
    wedge1
    {
        type            wedge;
    }
    wedge2
    {
        type            wedge;
    }
    wedge3
    {
        type            wedge;
    }
    outlet
    {
        type            zeroGradient;
    }
    defaultFaces
    {
        type            empty;
    }
}


// ************************************************************************* //
