0.005 	1.43724e+08 	5015.84
0.015 	1.41419e+08 	4995.57
0.025 	1.39133e+08 	4975.22
0.035 	1.36867e+08 	4954.8
0.045 	1.34621e+08 	4934.3
0.055 	1.32395e+08 	4913.73
0.065 	1.30188e+08 	4893.09
0.075 	1.28003e+08 	4872.38
0.085 	1.25837e+08 	4851.6
0.095 	1.23693e+08 	4830.76
0.105 	1.2157e+08 	4809.85
0.115 	1.19468e+08 	4788.88
0.125 	1.17387e+08 	4767.85
0.135 	1.15327e+08 	4746.76
0.145 	1.1329e+08 	4725.61
0.155 	1.11274e+08 	4704.4
0.165 	1.0928e+08 	4683.14
0.175 	1.07308e+08 	4661.82
0.185 	1.05358e+08 	4640.46
0.195 	1.0343e+08 	4619.04
0.205 	1.01525e+08 	4597.58
0.215 	9.96418e+07 	4576.07
0.225 	9.77811e+07 	4554.51
0.235 	9.59429e+07 	4532.91
0.245 	9.41272e+07 	4511.27
0.255 	9.2334e+07 	4489.58
0.265 	9.05634e+07 	4467.86
0.275 	8.88154e+07 	4446.1
0.285 	8.70899e+07 	4424.3
0.295 	8.5387e+07 	4402.47
0.305 	8.37067e+07 	4380.61
0.315 	8.20489e+07 	4358.71
0.325 	8.04136e+07 	4336.79
0.335 	7.88008e+07 	4314.83
0.345 	7.72105e+07 	4292.85
0.355 	7.56425e+07 	4270.85
0.365 	7.40968e+07 	4248.82
0.375 	7.25735e+07 	4226.77
0.385 	7.10722e+07 	4204.69
0.395 	6.95931e+07 	4182.6
0.405 	6.8136e+07 	4160.49
0.415 	6.67009e+07 	4138.36
0.425 	6.52875e+07 	4116.22
0.435 	6.38959e+07 	4094.06
0.445 	6.25259e+07 	4071.9
0.455 	6.11773e+07 	4049.72
0.465 	5.98501e+07 	4027.53
0.475 	5.85442e+07 	4005.33
0.485 	5.72594e+07 	3983.13
0.495 	5.59955e+07 	3960.93
0.505 	5.47524e+07 	3938.71
0.515 	5.35301e+07 	3916.5
0.525 	5.23282e+07 	3894.29
0.535 	5.11467e+07 	3872.07
0.545 	4.99854e+07 	3849.86
0.555 	4.88441e+07 	3827.65
0.565 	4.77227e+07 	3805.45
0.575 	4.6621e+07 	3783.25
0.585 	4.55388e+07 	3761.06
0.595 	4.44759e+07 	3738.87
0.605 	4.34322e+07 	3716.7
0.615 	4.24075e+07 	3694.54
0.625 	4.14016e+07 	3672.39
0.635 	4.04142e+07 	3650.25
0.645 	3.94453e+07 	3628.13
0.655 	3.84945e+07 	3606.02
0.665 	3.75618e+07 	3583.93
0.675 	3.66468e+07 	3561.86
0.685 	3.57495e+07 	3539.82
0.695 	3.48696e+07 	3517.79
0.705 	3.40069e+07 	3495.78
0.715 	3.31612e+07 	3473.8
0.725 	3.23322e+07 	3451.84
0.735 	3.15199e+07 	3429.91
0.745 	3.07239e+07 	3408
0.755 	2.99441e+07 	3386.13
0.765 	2.91802e+07 	3364.28
0.775 	2.8432e+07 	3342.46
0.785 	2.76994e+07 	3320.68
0.795 	2.69821e+07 	3298.92
0.805 	2.62799e+07 	3277.21
0.815 	2.55926e+07 	3255.52
0.825 	2.492e+07 	3233.88
0.835 	2.42618e+07 	3212.27
0.845 	2.36179e+07 	3190.69
0.855 	2.2988e+07 	3169.16
0.865 	2.23719e+07 	3147.67
0.875 	2.17695e+07 	3126.22
0.885 	2.11805e+07 	3104.81
0.895 	2.06046e+07 	3083.45
0.905 	2.00417e+07 	3062.13
0.915 	1.94916e+07 	3040.86
0.925 	1.89541e+07 	3019.63
0.935 	1.84289e+07 	2998.45
0.945 	1.79159e+07 	2977.32
0.955 	1.74148e+07 	2956.24
0.965 	1.69255e+07 	2935.21
0.975 	1.64477e+07 	2914.23
0.985 	1.59813e+07 	2893.3
0.995 	1.55259e+07 	2872.43
1.005 	1.50816e+07 	2851.61
1.015 	1.46479e+07 	2830.85
1.025 	1.42249e+07 	2810.14
1.035 	1.38121e+07 	2789.49
1.045 	1.34096e+07 	2768.9
1.055 	1.3017e+07 	2748.37
1.065 	1.26342e+07 	2727.9
1.075 	1.22609e+07 	2707.48
1.085 	1.18971e+07 	2687.13
1.095 	1.15425e+07 	2666.84
1.105 	1.1197e+07 	2646.61
1.115 	1.08603e+07 	2626.45
1.125 	1.05324e+07 	2606.35
1.135 	1.02129e+07 	2586.32
1.145 	9.90175e+06 	2566.35
1.155 	9.59878e+06 	2546.45
1.165 	9.3038e+06 	2526.62
1.175 	9.01666e+06 	2506.86
1.185 	8.73718e+06 	2487.16
1.195 	8.4652e+06 	2467.54
1.205 	8.20056e+06 	2447.99
1.215 	7.9431e+06 	2428.5
1.225 	7.69267e+06 	2409.09
1.235 	7.4491e+06 	2389.75
1.245 	7.21226e+06 	2370.49
1.255 	6.98197e+06 	2351.3
1.265 	6.75811e+06 	2332.18
1.275 	6.54052e+06 	2313.14
1.285 	6.32906e+06 	2294.17
1.295 	6.12358e+06 	2275.29
1.305 	5.92396e+06 	2256.47
1.315 	5.73004e+06 	2237.74
1.325 	5.54171e+06 	2219.08
1.335 	5.35881e+06 	2200.51
1.345 	5.18123e+06 	2182.01
1.355 	5.00884e+06 	2163.59
1.365 	4.84151e+06 	2145.25
1.375 	4.67911e+06 	2127
1.385 	4.52153e+06 	2108.82
1.395 	4.36865e+06 	2090.73
1.405 	4.22034e+06 	2072.72
1.415 	4.07649e+06 	2054.79
1.425 	3.937e+06 	2036.95
1.435 	3.80174e+06 	2019.18
1.445 	3.67061e+06 	2001.51
1.455 	3.54351e+06 	1983.92
1.465 	3.42033e+06 	1966.41
1.475 	3.30096e+06 	1948.99
1.485 	3.18531e+06 	1931.66
1.495 	3.07327e+06 	1914.41
1.505 	2.96476e+06 	1897.25
1.515 	2.85968e+06 	1880.17
1.525 	2.75792e+06 	1863.18
1.535 	2.65941e+06 	1846.28
1.545 	2.56406e+06 	1829.47
1.555 	2.47177e+06 	1812.75
1.565 	2.38246e+06 	1796.12
1.575 	2.29606e+06 	1779.57
1.585 	2.21247e+06 	1763.12
1.595 	2.13162e+06 	1746.75
1.605 	2.05343e+06 	1730.47
1.615 	1.97783e+06 	1714.29
1.625 	1.90474e+06 	1698.19
1.635 	1.83409e+06 	1682.19
1.645 	1.7658e+06 	1666.28
1.655 	1.69981e+06 	1650.45
1.665 	1.63606e+06 	1634.72
1.675 	1.57447e+06 	1619.09
1.685 	1.51498e+06 	1603.54
1.695 	1.45752e+06 	1588.08
1.705 	1.40205e+06 	1572.72
1.715 	1.34849e+06 	1557.45
1.725 	1.29679e+06 	1542.27
1.735 	1.24689e+06 	1527.18
1.745 	1.19874e+06 	1512.19
1.755 	1.15228e+06 	1497.29
1.765 	1.10746e+06 	1482.48
1.775 	1.06423e+06 	1467.77
1.785 	1.02254e+06 	1453.15
1.795 	982335 	1438.62
1.805 	943578 	1424.19
1.815 	906217 	1409.85
1.825 	870210 	1395.6
1.835 	835511 	1381.44
1.845 	802078 	1367.38
1.855 	769871 	1353.42
1.865 	738849 	1339.54
1.875 	708974 	1325.76
1.885 	680207 	1312.08
1.895 	652511 	1298.49
1.905 	625851 	1284.99
1.915 	600193 	1271.58
1.925 	575502 	1258.27
1.935 	551745 	1245.05
1.945 	528891 	1231.93
1.955 	506909 	1218.9
1.965 	485770 	1205.96
1.975 	465443 	1193.11
1.985 	445901 	1180.36
1.995 	427116 	1167.7
2.005 	409062 	1155.14
2.015 	391713 	1142.66
2.025 	375045 	1130.28
2.035 	359032 	1118
2.045 	343653 	1105.8
2.055 	328883 	1093.7
2.065 	314701 	1081.69
2.075 	301086 	1069.77
2.085 	288017 	1057.94
2.095 	275475 	1046.21
2.105 	263439 	1034.56
2.115 	251891 	1023.01
2.125 	240814 	1011.55
2.135 	230190 	1000.18
2.145 	220001 	988.902
2.155 	210232 	977.713
2.165 	200867 	966.615
2.175 	191890 	955.607
2.185 	183287 	944.688
2.195 	175043 	933.86
2.205 	167145 	923.121
2.215 	159579 	912.47
2.225 	152333 	901.909
2.235 	145394 	891.437
2.245 	138750 	881.052
2.255 	132390 	870.756
2.265 	126303 	860.548
2.275 	120477 	850.427
2.285 	114902 	840.393
2.295 	109569 	830.447
2.305 	104468 	820.587
2.315 	99588.5 	810.813
2.325 	94923.1 	801.125
2.335 	90462.4 	791.523
2.345 	86198.4 	782.007
2.355 	82122.8 	772.575
2.365 	78228.1 	763.229
2.375 	74506.7 	753.966
2.385 	70951.6 	744.788
2.395 	67555.9 	735.693
2.405 	64312.9 	726.682
2.415 	61216.2 	717.753
2.425 	58259.8 	708.908
2.435 	55437.7 	700.144
2.445 	52744.2 	691.463
2.455 	50173.9 	682.862
2.465 	47721.6 	674.344
2.475 	45382.2 	665.905
2.485 	43150.9 	657.548
2.495 	41023.1 	649.27
2.505 	38994.1 	641.071
2.515 	37059.9 	632.952
2.525 	35216.2 	624.912
2.535 	33459 	616.951
2.545 	31784.7 	609.067
2.555 	30189.5 	601.261
2.565 	28670 	593.532
2.575 	27222.7 	585.88
2.585 	25844.6 	578.304
2.595 	24532.4 	570.804
2.605 	23283.2 	563.379
2.615 	22094.3 	556.03
2.625 	20962.8 	548.756
2.635 	19886.2 	541.555
2.645 	18862 	534.428
2.655 	17887.8 	527.375
2.665 	16961.2 	520.395
2.675 	16080.2 	513.487
2.685 	15242.6 	506.651
2.695 	14446.3 	499.887
2.705 	13689.6 	493.194
2.715 	12970.5 	486.571
2.725 	12287.2 	480.019
2.735 	11638.1 	473.537
2.745 	11021.6 	467.124
2.755 	10436.2 	460.78
2.765 	9880.25 	454.505
2.775 	9352.51 	448.297
2.785 	8851.57 	442.157
2.795 	8376.16 	436.084
2.805 	7925.05 	430.078
2.815 	7497.07 	424.138
2.825 	7091.09 	418.263
2.835 	6706.05 	412.454
2.845 	6340.93 	406.71
2.855 	5994.75 	401.029
2.865 	5666.58 	395.413
2.875 	5355.54 	389.86
2.885 	5060.79 	384.37
2.895 	4781.5 	378.943
2.905 	4516.92 	373.577
2.915 	4266.32 	368.273
2.925 	4028.98 	363.03
2.935 	3804.25 	357.848
2.945 	3591.5 	352.725
2.955 	3390.11 	347.663
2.965 	3199.5 	342.659
2.975 	3019.15 	337.714
2.985 	2848.51 	332.828
2.995 	2687.09 	327.999
3.005 	2534.42 	323.228
3.015 	2390.05 	318.513
3.025 	2253.54 	313.855
3.035 	2124.5 	309.253
3.045 	2002.53 	304.706
3.055 	1887.27 	300.214
3.065 	1778.36 	295.777
3.075 	1675.47 	291.393
3.085 	1578.28 	287.064
3.095 	1486.5 	282.787
3.105 	1399.83 	278.563
3.115 	1318.01 	274.392
3.125 	1240.77 	270.272
3.135 	1167.88 	266.203
3.145 	1099.09 	262.186
3.155 	1034.19 	258.218
3.165 	972.97 	254.301
3.175 	915.228 	250.433
3.185 	860.776 	246.614
3.195 	809.436 	242.844
3.205 	761.036 	239.122
3.215 	715.417 	235.447
3.225 	672.426 	231.82
3.235 	631.918 	228.24
3.245 	593.755 	224.706
3.255 	557.809 	221.217
3.265 	523.955 	217.775
3.275 	492.078 	214.377
3.285 	462.066 	211.024
3.295 	433.816 	207.715
3.305 	407.228 	204.45
3.315 	382.208 	201.228
3.325 	358.669 	198.049
3.335 	336.526 	194.912
3.345 	315.699 	191.818
3.355 	296.114 	188.765
3.365 	277.699 	185.753
3.375 	260.388 	182.782
3.385 	244.117 	179.851
3.395 	228.827 	176.96
3.405 	214.459 	174.108
3.415 	200.962 	171.296
3.425 	188.284 	168.523
3.435 	176.378 	165.787
3.445 	165.198 	163.09
3.455 	154.701 	160.429
3.465 	144.849 	157.806
3.475 	135.602 	155.22
3.485 	126.925 	152.67
3.495 	118.785 	150.156
3.505 	111.148 	147.677
3.515 	103.986 	145.233
3.525 	97.2697 	142.824
3.535 	90.9726 	140.449
3.545 	85.0695 	138.108
3.555 	79.5366 	135.801
3.565 	74.3516 	133.527
3.575 	69.4934 	131.286
3.585 	64.9423 	129.077
3.595 	60.6794 	126.9
3.605 	56.6872 	124.755
3.615 	52.9491 	122.641
3.625 	49.4495 	120.558
3.635 	46.1738 	118.506
3.645 	43.1082 	116.484
3.655 	40.2396 	114.492
3.665 	37.5558 	112.529
3.675 	35.0453 	110.595
3.685 	32.6974 	108.691
3.695 	30.5019 	106.814
3.705 	28.4492 	104.966
3.715 	26.5303 	103.146
3.725 	24.7369 	101.353
3.735 	23.0609 	99.5877
3.745 	21.4951 	97.8488
3.755 	20.0323 	96.1364
3.765 	18.666 	94.4502
3.775 	17.3902 	92.7897
3.785 	16.1989 	91.1547
3.795 	15.0867 	89.5449
3.805 	14.0487 	87.96
3.815 	13.0799 	86.3996
3.825 	12.176 	84.8634
3.835 	11.3327 	83.3512
3.845 	10.5461 	81.8626
3.855 	9.81248 	80.3973
3.865 	9.12843 	78.9551
3.875 	8.49069 	77.5355
3.885 	7.89622 	76.1384
3.895 	7.34218 	74.7634
3.905 	6.8259 	73.4103
3.915 	6.3449 	72.0787
3.925 	5.89683 	70.7684
3.935 	5.47951 	69.4791
3.945 	5.0909 	68.2104
3.955 	4.72908 	66.9622
3.965 	4.39226 	65.7342
3.975 	4.07876 	64.5261
3.985 	3.78703 	63.3376
3.995 	3.51559 	62.1685
4.005 	3.26307 	61.0184
4.015 	3.02819 	59.8872
4.025 	2.80977 	58.7745
4.035 	2.60667 	57.6802
4.045 	2.41786 	56.6039
4.055 	2.24236 	55.5454
4.065 	2.07926 	54.5045
4.075 	1.92771 	53.4809
4.085 	1.78692 	52.4744
4.095 	1.65613 	51.4848
4.105 	1.53467 	50.5117
4.115 	1.42188 	49.555
4.125 	1.31717 	48.6145
4.135 	1.21997 	47.6898
4.145 	1.12976 	46.7808
4.155 	1.04604 	45.8873
4.165 	0.968375 	45.0089
4.175 	0.896327 	44.1456
4.185 	0.829504 	43.2971
4.195 	0.767537 	42.4631
4.205 	0.710083 	41.6435
4.215 	0.656822 	40.838
4.225 	0.607456 	40.0465
4.235 	0.561709 	39.2687
4.245 	0.519322 	38.5044
4.255 	0.480054 	37.7535
4.265 	0.443683 	37.0157
4.275 	0.410001 	36.2908
4.285 	0.378813 	35.5787
4.295 	0.349941 	34.879
4.305 	0.323216 	34.1918
4.315 	0.298483 	33.5167
4.325 	0.275597 	32.8536
4.335 	0.254424 	32.2022
4.345 	0.23484 	31.5625
4.355 	0.216727 	30.9343
4.365 	0.199978 	30.3173
4.375 	0.184494 	29.7113
4.385 	0.17018 	29.1163
4.395 	0.156951 	28.5321
4.405 	0.144727 	27.9584
4.415 	0.133433 	27.3951
4.425 	0.123 	26.842
4.435 	0.113364 	26.2991
4.445 	0.104466 	25.766
4.455 	0.0962504 	25.2427
4.465 	0.0886663 	24.7291
4.475 	0.0816663 	24.2249
4.485 	0.0752066 	23.7299
4.495 	0.0692465 	23.2442
4.505 	0.0637482 	22.7674
4.515 	0.0586768 	22.2995
4.525 	0.0539999 	21.8404
4.535 	0.0496877 	21.3897
4.545 	0.0457123 	20.9476
4.555 	0.042048 	20.5137
4.565 	0.038671 	20.088
4.575 	0.0355594 	19.6702
4.585 	0.0326928 	19.2604
4.595 	0.0300523 	18.8584
4.605 	0.0276205 	18.464
4.615 	0.0253813 	18.0771
4.625 	0.0233198 	17.6975
4.635 	0.0214222 	17.3252
4.645 	0.0196758 	16.9601
4.655 	0.0180687 	16.6019
4.665 	0.0165902 	16.2507
4.675 	0.0152302 	15.9062
4.685 	0.0139793 	15.5683
4.695 	0.012829 	15.2371
4.705 	0.0117715 	14.9122
4.715 	0.0107993 	14.5937
4.725 	0.0099058 	14.2814
4.735 	0.00908472 	13.9752
4.745 	0.00833031 	13.675
4.755 	0.00763729 	13.3806
4.765 	0.00700077 	13.0921
4.775 	0.00641624 	12.8093
4.785 	0.00587953 	12.5321
4.795 	0.00538684 	12.2603
4.805 	0.00493461 	11.9939
4.815 	0.0045196 	11.7329
4.825 	0.00413881 	11.4771
4.835 	0.00378947 	11.2263
4.845 	0.00346905 	10.9806
4.855 	0.00317519 	10.7398
4.865 	0.00290574 	10.5039
4.875 	0.00265872 	10.2727
4.885 	0.0024323 	10.0462
4.895 	0.00222479 	9.82432
4.905 	0.00203465 	9.60691
4.915 	0.00186045 	9.39391
4.925 	0.00170088 	9.18526
4.935 	0.00155474 	8.98087
4.945 	0.00142092 	8.78067
4.955 	0.00129841 	8.58458
4.965 	0.00118626 	8.39252
4.975 	0.00108362 	8.20441
4.985 	0.000989695 	8.02019
4.995 	0.000903763 	7.83978
5.005 	0.000825155 	7.6631
5.015 	0.00075326 	7.4901
5.025 	0.000687515 	7.3207
5.035 	0.000627405 	7.15484
5.045 	0.000572456 	6.99245
5.055 	0.000522232 	6.83346
5.065 	0.000476337 	6.67781
5.075 	0.000434403 	6.52543
5.085 	0.000396095 	6.37627
5.095 	0.000361106 	6.23026
5.105 	0.000329153 	6.08734
5.115 	0.000299978 	5.94746
5.125 	0.000273344 	5.81055
5.135 	0.000249034 	5.67655
5.145 	0.000226849 	5.54542
5.155 	0.000206606 	5.4171
5.165 	0.000188139 	5.29153
5.175 	0.000171294 	5.16866
5.185 	0.000155932 	5.04843
5.195 	0.000141924 	4.9308
5.205 	0.000129154 	4.81572
5.215 	0.000117514 	4.70313
5.225 	0.000106905 	4.59298
5.235 	9.72384e-05 	4.48523
5.245 	8.84316e-05 	4.37984
5.255 	8.04095e-05 	4.27674
5.265 	7.31033e-05 	4.17591
5.275 	6.64504e-05 	4.0773
5.285 	6.03934e-05 	3.98085
5.295 	5.48798e-05 	3.88653
5.305 	4.98616e-05 	3.7943
5.315 	4.52953e-05 	3.70411
5.325 	4.11407e-05 	3.61593
5.335 	3.73615e-05 	3.52971
5.345 	3.39242e-05 	3.44541
5.355 	3.07984e-05 	3.363
5.365 	2.79565e-05 	3.28244
5.375 	2.53731e-05 	3.20369
5.385 	2.3025e-05 	3.12671
5.395 	2.08912e-05 	3.05148
5.405 	1.89524e-05 	2.97795
5.415 	1.71912e-05 	2.9061
5.425 	1.55915e-05 	2.83588
5.435 	1.41388e-05 	2.76726
5.445 	1.28198e-05 	2.70023
5.455 	1.16223e-05 	2.63473
5.465 	1.05355e-05 	2.57075
5.475 	9.54912e-06 	2.50825
5.485 	8.65416e-06 	2.4472
5.495 	7.84224e-06 	2.38758
5.505 	7.1058e-06 	2.32935
5.515 	6.43792e-06 	2.2725
5.525 	5.83233e-06 	2.21699
5.535 	5.28331e-06 	2.1628
5.545 	4.78565e-06 	2.1099
5.555 	4.33464e-06 	2.05827
5.565 	3.92597e-06 	2.00789
5.575 	3.55572e-06 	1.95873
5.585 	3.22035e-06 	1.91078
5.595 	2.91661e-06 	1.864
5.605 	2.64157e-06 	1.81839
5.615 	2.39256e-06 	1.77391
5.625 	2.16716e-06 	1.73055
5.635 	1.96316e-06 	1.6883
5.645 	1.77856e-06 	1.64713
5.655 	1.61155e-06 	1.60703
5.665 	1.46047e-06 	1.56799
5.675 	1.32382e-06 	1.52998
5.685 	1.20026e-06 	1.49299
5.695 	1.08855e-06 	1.45701
5.705 	9.87556e-07 	1.42204
5.715 	8.9628e-07 	1.38804
5.725 	8.13796e-07 	1.35502
5.735 	7.39271e-07 	1.32297
5.745 	6.71948e-07 	1.29186
5.755 	6.11142e-07 	1.26171
5.765 	5.5623e-07 	1.23249
5.775 	5.0665e-07 	1.2042
5.785 	4.61892e-07 	1.17684
5.795 	4.21493e-07 	1.15039
5.805 	3.85036e-07 	1.12485
5.815 	3.52141e-07 	1.10022
5.825 	3.22466e-07 	1.07649
5.835 	2.95699e-07 	1.05366
5.845 	2.7156e-07 	1.03172
5.855 	2.49794e-07 	1.01066
5.865 	2.30172e-07 	0.990485
5.875 	2.12485e-07 	0.971181
5.885 	1.96545e-07 	0.952744
5.895 	1.82182e-07 	0.935165
5.905 	1.69243e-07 	0.918436
5.915 	1.57588e-07 	0.902545
5.925 	1.47091e-07 	0.887482
5.935 	1.37639e-07 	0.873232
5.945 	1.29129e-07 	0.85978
5.955 	1.2147e-07 	0.84711
5.965 	1.14576e-07 	0.835202
5.975 	1.08373e-07 	0.824035
5.985 	1.02792e-07 	0.813588
5.995 	9.77715e-08 	0.803835
6.005 	9.32564e-08 	0.794752
6.015 	8.91962e-08 	0.786311
6.025 	8.55459e-08 	0.778485
6.035 	8.22645e-08 	0.771244
6.045 	7.93153e-08 	0.764558
6.055 	7.66651e-08 	0.758398
6.065 	7.4284e-08 	0.752734
6.075 	7.2145e-08 	0.747536
6.085 	7.02239e-08 	0.742774
6.095 	6.84987e-08 	0.738418
6.105 	6.69497e-08 	0.734442
6.115 	6.55592e-08 	0.730818
6.125 	6.43112e-08 	0.727519
6.135 	6.31912e-08 	0.72452
6.145 	6.21863e-08 	0.721798
6.155 	6.12848e-08 	0.71933
6.165 	6.04762e-08 	0.717095
6.175 	5.97511e-08 	0.715073
6.185 	5.91009e-08 	0.713246
6.195 	5.85181e-08 	0.711597
6.205 	5.79957e-08 	0.710109
6.215 	5.75275e-08 	0.708767
6.225 	5.7108e-08 	0.707559
6.235 	5.67321e-08 	0.706472
6.245 	5.63955e-08 	0.705494
6.255 	5.6094e-08 	0.704615
6.265 	5.58241e-08 	0.703825
6.275 	5.55824e-08 	0.703115
6.285 	5.53661e-08 	0.702479
6.295 	5.51725e-08 	0.701908
6.305 	5.49992e-08 	0.701396
6.315 	5.48443e-08 	0.700937
6.325 	5.47056e-08 	0.700525
6.335 	5.45816e-08 	0.700157
6.345 	5.44708e-08 	0.699827
6.355 	5.43716e-08 	0.699532
6.365 	5.4283e-08 	0.699268
6.375 	5.42039e-08 	0.699032
6.385 	5.41331e-08 	0.698821
6.395 	5.40699e-08 	0.698632
6.405 	5.40134e-08 	0.698463
6.415 	5.3963e-08 	0.698312
6.425 	5.39179e-08 	0.698177
6.435 	5.38777e-08 	0.698057
6.445 	5.38418e-08 	0.697949
6.455 	5.38098e-08 	0.697853
6.465 	5.37812e-08 	0.697768
6.475 	5.37557e-08 	0.697691
6.485 	5.37329e-08 	0.697623
6.495 	5.37126e-08 	0.697562
6.505 	5.36945e-08 	0.697508
6.515 	5.36784e-08 	0.69746
6.525 	5.3664e-08 	0.697417
6.535 	5.36511e-08 	0.697378
6.545 	5.36397e-08 	0.697344
6.555 	5.36295e-08 	0.697314
6.565 	5.36205e-08 	0.697286
6.575 	5.36124e-08 	0.697262
6.585 	5.36052e-08 	0.697241
6.595 	5.35988e-08 	0.697221
6.605 	5.35931e-08 	0.697204
6.615 	5.3588e-08 	0.697189
6.625 	5.35835e-08 	0.697176
6.635 	5.35794e-08 	0.697164
6.645 	5.35759e-08 	0.697153
6.655 	5.35727e-08 	0.697143
6.665 	5.35698e-08 	0.697135
6.675 	5.35673e-08 	0.697127
6.685 	5.35651e-08 	0.697121
6.695 	5.35631e-08 	0.697115
6.705 	5.35613e-08 	0.697109
6.715 	5.35597e-08 	0.697105
6.725 	5.35583e-08 	0.6971
6.735 	5.35571e-08 	0.697097
6.745 	5.3556e-08 	0.697093
6.755 	5.3555e-08 	0.69709
6.765 	5.35541e-08 	0.697088
6.775 	5.35533e-08 	0.697085
6.785 	5.35526e-08 	0.697083
6.795 	5.3552e-08 	0.697082
6.805 	5.35515e-08 	0.69708
6.815 	5.3551e-08 	0.697078
6.825 	5.35505e-08 	0.697077
6.835 	5.35502e-08 	0.697076
6.845 	5.35498e-08 	0.697075
6.855 	5.35495e-08 	0.697074
6.865 	5.35492e-08 	0.697073
6.875 	5.3549e-08 	0.697072
6.885 	5.35487e-08 	0.697072
6.895 	5.35485e-08 	0.697071
6.905 	5.35484e-08 	0.697071
6.915 	5.35482e-08 	0.69707
6.925 	5.3548e-08 	0.69707
6.935 	5.35479e-08 	0.697069
6.945 	5.35478e-08 	0.697069
6.955 	5.35477e-08 	0.697068
6.965 	5.35475e-08 	0.697068
6.975 	5.35474e-08 	0.697068
6.985 	5.35473e-08 	0.697068
6.995 	5.35473e-08 	0.697067
7.005 	5.35472e-08 	0.697067
7.015 	5.35471e-08 	0.697067
7.025 	5.3547e-08 	0.697067
7.035 	5.35469e-08 	0.697066
7.045 	5.35468e-08 	0.697066
7.055 	5.35468e-08 	0.697066
7.065 	5.35467e-08 	0.697066
7.075 	5.35466e-08 	0.697065
7.085 	5.35465e-08 	0.697065
7.095 	5.35465e-08 	0.697065
7.105 	5.35464e-08 	0.697065
7.115 	5.35463e-08 	0.697064
7.125 	5.35462e-08 	0.697064
7.135 	5.35461e-08 	0.697064
7.145 	5.3546e-08 	0.697063
7.155 	5.35459e-08 	0.697063
7.165 	5.35458e-08 	0.697063
7.175 	5.35457e-08 	0.697062
7.185 	5.35456e-08 	0.697062
7.195 	5.35455e-08 	0.697062
7.205 	5.35453e-08 	0.697061
7.215 	5.35452e-08 	0.697061
7.225 	5.35451e-08 	0.69706
7.235 	5.35449e-08 	0.69706
7.245 	5.35448e-08 	0.697059
7.255 	5.35446e-08 	0.697059
7.265 	5.35444e-08 	0.697058
7.275 	5.35443e-08 	0.697058
7.285 	5.35441e-08 	0.697057
7.295 	5.35439e-08 	0.697057
7.305 	5.35437e-08 	0.697056
7.315 	5.35434e-08 	0.697055
7.325 	5.35432e-08 	0.697054
7.335 	5.3543e-08 	0.697054
7.345 	5.35427e-08 	0.697053
7.355 	5.35424e-08 	0.697052
7.365 	5.35422e-08 	0.697051
7.375 	5.35419e-08 	0.69705
7.385 	5.35415e-08 	0.697049
7.395 	5.35412e-08 	0.697048
7.405 	5.35409e-08 	0.697047
7.415 	5.35405e-08 	0.697046
7.425 	5.35401e-08 	0.697045
7.435 	5.35397e-08 	0.697043
7.445 	5.35393e-08 	0.697042
7.455 	5.35388e-08 	0.69704
7.465 	5.35383e-08 	0.697039
7.475 	5.35378e-08 	0.697037
7.485 	5.35373e-08 	0.697036
7.495 	5.35368e-08 	0.697034
7.505 	5.35362e-08 	0.697032
7.515 	5.35356e-08 	0.69703
7.525 	5.35349e-08 	0.697028
7.535 	5.35342e-08 	0.697026
7.545 	5.35335e-08 	0.697024
7.555 	5.35328e-08 	0.697021
7.565 	5.3532e-08 	0.697019
7.575 	5.35312e-08 	0.697016
7.585 	5.35303e-08 	0.697013
7.595 	5.35294e-08 	0.69701
7.605 	5.35285e-08 	0.697007
7.615 	5.35275e-08 	0.697004
7.625 	5.35264e-08 	0.697001
7.635 	5.35253e-08 	0.696997
7.645 	5.35242e-08 	0.696994
7.655 	5.3523e-08 	0.69699
7.665 	5.35217e-08 	0.696986
7.675 	5.35204e-08 	0.696981
7.685 	5.3519e-08 	0.696977
7.695 	5.35175e-08 	0.696972
7.705 	5.3516e-08 	0.696967
7.715 	5.35144e-08 	0.696962
7.725 	5.35127e-08 	0.696957
7.735 	5.3511e-08 	0.696951
7.745 	5.35092e-08 	0.696945
7.755 	5.35072e-08 	0.696939
7.765 	5.35052e-08 	0.696933
7.775 	5.35031e-08 	0.696926
7.785 	5.35009e-08 	0.696919
7.795 	5.34986e-08 	0.696912
7.805 	5.34962e-08 	0.696904
7.815 	5.34937e-08 	0.696896
7.825 	5.3491e-08 	0.696887
7.835 	5.34883e-08 	0.696878
7.845 	5.34854e-08 	0.696869
7.855 	5.34824e-08 	0.696859
7.865 	5.34792e-08 	0.696849
7.875 	5.34759e-08 	0.696839
7.885 	5.34725e-08 	0.696828
7.895 	5.34689e-08 	0.696816
7.905 	5.34651e-08 	0.696804
7.915 	5.34612e-08 	0.696791
7.925 	5.34571e-08 	0.696778
7.935 	5.34528e-08 	0.696764
7.945 	5.34484e-08 	0.69675
7.955 	5.34437e-08 	0.696735
7.965 	5.34388e-08 	0.696719
7.975 	5.34338e-08 	0.696703
7.985 	5.34285e-08 	0.696686
7.995 	5.34229e-08 	0.696668
8.005 	5.34172e-08 	0.69665
8.015 	5.34112e-08 	0.69663
8.025 	5.34049e-08 	0.69661
8.035 	5.33984e-08 	0.696589
8.045 	5.33916e-08 	0.696567
8.055 	5.33845e-08 	0.696544
8.065 	5.33772e-08 	0.696521
8.075 	5.33695e-08 	0.696496
8.085 	5.33615e-08 	0.69647
8.095 	5.33531e-08 	0.696443
8.105 	5.33445e-08 	0.696415
8.115 	5.33354e-08 	0.696386
8.125 	5.3326e-08 	0.696356
8.135 	5.33162e-08 	0.696324
8.145 	5.33061e-08 	0.696291
8.155 	5.32955e-08 	0.696257
8.165 	5.32845e-08 	0.696221
8.175 	5.3273e-08 	0.696184
8.185 	5.32611e-08 	0.696146
8.195 	5.32487e-08 	0.696106
8.205 	5.32358e-08 	0.696064
8.215 	5.32224e-08 	0.696021
8.225 	5.32085e-08 	0.695976
8.235 	5.31941e-08 	0.695929
8.245 	5.31791e-08 	0.69588
8.255 	5.31635e-08 	0.69583
8.265 	5.31473e-08 	0.695777
8.275 	5.31305e-08 	0.695723
8.285 	5.3113e-08 	0.695666
8.295 	5.30949e-08 	0.695607
8.305 	5.30761e-08 	0.695546
8.315 	5.30566e-08 	0.695483
8.325 	5.30364e-08 	0.695417
8.335 	5.30154e-08 	0.695349
8.345 	5.29936e-08 	0.695278
8.355 	5.2971e-08 	0.695205
8.365 	5.29476e-08 	0.695129
8.375 	5.29233e-08 	0.69505
8.385 	5.28982e-08 	0.694968
8.395 	5.28721e-08 	0.694883
8.405 	5.28451e-08 	0.694795
8.415 	5.28171e-08 	0.694704
8.425 	5.27881e-08 	0.694609
8.435 	5.27581e-08 	0.694511
8.445 	5.2727e-08 	0.69441
8.455 	5.26948e-08 	0.694305
8.465 	5.26615e-08 	0.694196
8.475 	5.2627e-08 	0.694083
8.485 	5.25913e-08 	0.693966
8.495 	5.25544e-08 	0.693845
8.505 	5.25162e-08 	0.69372
8.515 	5.24767e-08 	0.693591
8.525 	5.24358e-08 	0.693457
8.535 	5.23936e-08 	0.693318
8.545 	5.23499e-08 	0.693175
8.555 	5.23048e-08 	0.693026
8.565 	5.22581e-08 	0.692873
8.575 	5.22099e-08 	0.692714
8.585 	5.21601e-08 	0.69255
8.595 	5.21086e-08 	0.69238
8.605 	5.20555e-08 	0.692205
8.615 	5.20006e-08 	0.692024
8.625 	5.19439e-08 	0.691837
8.635 	5.18854e-08 	0.691643
8.645 	5.18251e-08 	0.691443
8.655 	5.17627e-08 	0.691237
8.665 	5.16985e-08 	0.691023
8.675 	5.16321e-08 	0.690803
8.685 	5.15637e-08 	0.690576
8.695 	5.14932e-08 	0.690341
8.705 	5.14204e-08 	0.690098
8.715 	5.13454e-08 	0.689848
8.725 	5.12681e-08 	0.68959
8.735 	5.11884e-08 	0.689323
8.745 	5.11063e-08 	0.689048
8.755 	5.10216e-08 	0.688765
8.765 	5.09345e-08 	0.688472
8.775 	5.08447e-08 	0.688171
8.785 	5.07523e-08 	0.687859
8.795 	5.06571e-08 	0.687539
8.805 	5.05591e-08 	0.687208
8.815 	5.04583e-08 	0.686867
8.825 	5.03545e-08 	0.686515
8.835 	5.02477e-08 	0.686153
8.845 	5.01378e-08 	0.68578
8.855 	5.00248e-08 	0.685395
8.865 	4.99086e-08 	0.684999
8.875 	4.97891e-08 	0.684591
8.885 	4.96662e-08 	0.68417
8.895 	4.954e-08 	0.683737
8.905 	4.94102e-08 	0.683291
8.915 	4.92768e-08 	0.682832
8.925 	4.91398e-08 	0.682359
8.935 	4.8999e-08 	0.681873
8.945 	4.88545e-08 	0.681372
8.955 	4.8706e-08 	0.680856
8.965 	4.85536e-08 	0.680325
8.975 	4.83972e-08 	0.679779
8.985 	4.82366e-08 	0.679217
8.995 	4.80718e-08 	0.678639
9.005 	4.79028e-08 	0.678045
9.015 	4.77293e-08 	0.677433
9.025 	4.75515e-08 	0.676804
9.035 	4.73691e-08 	0.676157
9.045 	4.71821e-08 	0.675491
9.055 	4.69903e-08 	0.674807
9.065 	4.67939e-08 	0.674104
9.075 	4.65925e-08 	0.673381
9.085 	4.63862e-08 	0.672637
9.095 	4.61749e-08 	0.671873
9.105 	4.59584e-08 	0.671087
9.115 	4.57368e-08 	0.67028
9.125 	4.55098e-08 	0.66945
9.135 	4.52775e-08 	0.668598
9.145 	4.50397e-08 	0.667722
9.155 	4.47964e-08 	0.666822
9.165 	4.45475e-08 	0.665897
9.175 	4.42928e-08 	0.664947
9.185 	4.40324e-08 	0.663971
9.195 	4.37661e-08 	0.662969
9.205 	4.34938e-08 	0.661939
9.215 	4.32155e-08 	0.660881
9.225 	4.29311e-08 	0.659795
9.235 	4.26404e-08 	0.65868
9.245 	4.23435e-08 	0.657534
9.255 	4.20403e-08 	0.656357
9.265 	4.17305e-08 	0.655149
9.275 	4.14143e-08 	0.653909
9.285 	4.10915e-08 	0.652635
9.295 	4.0762e-08 	0.651327
9.305 	4.04258e-08 	0.649984
9.315 	4.00828e-08 	0.648605
9.325 	3.97329e-08 	0.64719
9.335 	3.9376e-08 	0.645736
9.345 	3.90122e-08 	0.644244
9.355 	3.86412e-08 	0.642712
9.365 	3.82632e-08 	0.641139
9.375 	3.78779e-08 	0.639523
9.385 	3.74854e-08 	0.637865
9.395 	3.70856e-08 	0.636162
9.405 	3.66784e-08 	0.634414
9.415 	3.62639e-08 	0.632619
9.425 	3.58419e-08 	0.630775
9.435 	3.54124e-08 	0.628882
9.445 	3.49753e-08 	0.626938
9.455 	3.45307e-08 	0.624941
9.465 	3.40785e-08 	0.62289
9.475 	3.36187e-08 	0.620784
9.485 	3.31512e-08 	0.61862
9.495 	3.26761e-08 	0.616397
9.505 	3.21932e-08 	0.614112
9.515 	3.17027e-08 	0.611765
9.525 	3.12044e-08 	0.609353
9.535 	3.06985e-08 	0.606874
9.545 	3.01848e-08 	0.604325
9.555 	2.96635e-08 	0.601704
9.565 	2.91344e-08 	0.599009
9.575 	2.85977e-08 	0.596237
9.585 	2.80533e-08 	0.593385
9.595 	2.75014e-08 	0.590451
9.605 	2.69418e-08 	0.58743
9.615 	2.63747e-08 	0.584321
9.625 	2.58001e-08 	0.581118
9.635 	2.52181e-08 	0.577819
9.645 	2.46287e-08 	0.57442
9.655 	2.4032e-08 	0.570915
9.665 	2.3428e-08 	0.5673
9.675 	2.28169e-08 	0.563571
9.685 	2.21987e-08 	0.559721
9.695 	2.15736e-08 	0.555745
9.705 	2.09416e-08 	0.551637
9.715 	2.03028e-08 	0.547388
9.725 	1.96574e-08 	0.542992
9.735 	1.90054e-08 	0.538441
9.745 	1.83471e-08 	0.533724
9.755 	1.76826e-08 	0.528832
9.765 	1.7012e-08 	0.523753
9.775 	1.63354e-08 	0.518474
9.785 	1.56531e-08 	0.512981
9.795 	1.49652e-08 	0.507259
9.805 	1.42719e-08 	0.501287
9.815 	1.35734e-08 	0.495047
9.825 	1.28699e-08 	0.488513
9.835 	1.21615e-08 	0.481658
9.845 	1.14486e-08 	0.47445
9.855 	1.07313e-08 	0.466848
9.865 	1.00099e-08 	0.458809
9.875 	9.28465e-09 	0.450275
9.885 	8.55571e-09 	0.441179
9.895 	7.8234e-09 	0.431435
9.905 	7.08797e-09 	0.420935
9.915 	6.34969e-09 	0.409539
9.925 	5.60883e-09 	0.397056
9.935 	4.86569e-09 	0.383225
9.945 	4.12055e-09 	0.367665
9.955 	3.37371e-09 	0.349788
9.965 	2.62546e-09 	0.328608
9.975 	1.87612e-09 	0.30225
9.985 	1.12599e-09 	0.26628
9.995 	3.75383e-10 	0.203263
