0.000749886 	2.16908e+06 	0.0100124 	13.6916 	-4.40629e-10 	4.41454e-10
0.0016069 	2.171e+06 	0.0100266 	24.6596 	-4.0917e-10 	4.09842e-10
0.0025654 	2.17219e+06 	0.0100464 	36.895 	-4.48348e-10 	4.48315e-10
0.00354676 	2.17301e+06 	0.0100729 	49.8921 	-4.53332e-10 	4.54084e-10
0.0045362 	2.17364e+06 	0.0101068 	63.1942 	-4.09535e-10 	4.09546e-10
0.00552938 	2.17415e+06 	0.0101484 	76.6444 	-4.10709e-10 	4.10655e-10
0.0065246 	2.1746e+06 	0.0101979 	90.1774 	-4.05373e-10 	4.05365e-10
0.00752105 	2.17499e+06 	0.0102556 	103.761 	-3.96991e-10 	3.97116e-10
0.00851829 	2.17535e+06 	0.0103216 	117.379 	-3.67401e-10 	3.67471e-10
0.00951608 	2.17568e+06 	0.010396 	131.021 	-3.25844e-10 	3.25872e-10
0.0105143 	2.17599e+06 	0.0104791 	144.68 	-2.88345e-10 	2.88312e-10
0.0115127 	2.17629e+06 	0.0105711 	158.353 	-2.53809e-10 	2.53813e-10
0.0125114 	2.17658e+06 	0.0106722 	172.036 	-2.25688e-10 	2.25645e-10
0.0135103 	2.17686e+06 	0.0107825 	185.728 	-1.9437e-10 	1.94369e-10
0.0145093 	2.17714e+06 	0.0109025 	199.427 	-1.63313e-10 	1.63293e-10
0.0155084 	2.17742e+06 	0.0110324 	213.132 	-1.33073e-10 	1.33063e-10
0.0165076 	2.17769e+06 	0.0111724 	226.843 	-1.05081e-10 	1.05117e-10
0.0175069 	2.17796e+06 	0.011323 	240.559 	-9.06119e-11 	9.06867e-11
0.0185062 	2.17824e+06 	0.0114844 	254.279 	-7.93696e-11 	7.93767e-11
0.0195056 	2.17851e+06 	0.0116571 	268.004 	-7.42411e-11 	7.42301e-11
0.020505 	2.1788e+06 	0.0118416 	281.732 	-7.21956e-11 	7.21811e-11
0.0215045 	2.17908e+06 	0.0120381 	295.464 	-7.2712e-11 	7.26888e-11
0.022504 	2.17937e+06 	0.0122473 	309.2 	-7.53641e-11 	7.53235e-11
0.0235035 	2.17967e+06 	0.0124697 	322.939 	-7.74481e-11 	7.74434e-11
0.0245031 	2.17998e+06 	0.0127058 	336.682 	-7.63569e-11 	7.63532e-11
0.0255027 	2.18029e+06 	0.0129562 	350.428 	-7.3061e-11 	7.30612e-11
0.0265023 	2.18061e+06 	0.0132216 	364.178 	-7.13724e-11 	7.13706e-11
0.0275019 	2.18094e+06 	0.0135026 	377.932 	-7.24795e-11 	7.24801e-11
0.0285015 	2.18129e+06 	0.0138 	391.689 	-6.68905e-11 	6.68903e-11
0.0295012 	2.18164e+06 	0.0141146 	405.45 	-6.15548e-11 	6.15547e-11
0.0305008 	2.18201e+06 	0.0144473 	419.215 	-5.8666e-11 	5.8666e-11
0.0315005 	2.18239e+06 	0.0147989 	432.984 	-5.59443e-11 	5.59443e-11
0.0325002 	2.18278e+06 	0.0151704 	446.757 	-5.10207e-11 	5.10207e-11
0.0334999 	2.18319e+06 	0.0155628 	460.535 	-4.71694e-11 	4.71694e-11
0.0344996 	2.18361e+06 	0.0159773 	474.317 	-4.30855e-11 	4.30855e-11
0.0354993 	2.18405e+06 	0.016415 	488.103 	-3.9375e-11 	3.9375e-11
0.036499 	2.18451e+06 	0.0168772 	501.894 	-3.59213e-11 	3.59213e-11
0.0374987 	2.18499e+06 	0.0173653 	515.69 	-3.31292e-11 	3.31292e-11
0.0384985 	2.18549e+06 	0.0178806 	529.492 	-3.13622e-11 	3.13622e-11
0.0394982 	2.18601e+06 	0.0184248 	543.299 	-3.08487e-11 	3.08487e-11
0.040498 	2.18655e+06 	0.0189995 	557.112 	-2.95421e-11 	2.95421e-11
0.0414977 	2.18712e+06 	0.0196064 	570.931 	-2.75917e-11 	2.75917e-11
0.0424975 	2.18771e+06 	0.0202475 	584.756 	-2.55849e-11 	2.55849e-11
0.0434972 	2.18833e+06 	0.0209248 	598.588 	-2.29732e-11 	2.29732e-11
0.044497 	2.18898e+06 	0.0216404 	612.427 	-2.12745e-11 	2.12745e-11
0.0454967 	2.18967e+06 	0.0223966 	626.274 	-2.04164e-11 	2.04164e-11
0.0464965 	2.19038e+06 	0.023196 	640.129 	-1.76985e-11 	1.76985e-11
0.0474963 	2.19113e+06 	0.0240413 	653.991 	-1.57591e-11 	1.57591e-11
0.0484961 	2.19192e+06 	0.0249352 	667.863 	-1.22488e-11 	1.22488e-11
0.0494958 	2.19275e+06 	0.0258808 	681.744 	-1.04071e-11 	1.04071e-11
0.0504956 	2.19362e+06 	0.0268814 	695.635 	-8.08211e-12 	8.08211e-12
0.0514954 	2.19454e+06 	0.0279406 	709.536 	-5.26257e-12 	5.26257e-12
0.0524952 	2.1955e+06 	0.029062 	723.448 	-3.3893e-12 	3.3893e-12
0.053495 	2.19652e+06 	0.0302498 	737.372 	-1.56328e-12 	1.56328e-12
0.0544948 	2.19759e+06 	0.0315083 	751.308 	-4.32058e-13 	4.32058e-13
0.0554946 	2.19872e+06 	0.0328421 	765.258 	0 	2.41667e-32
0.0564944 	2.19991e+06 	0.0342563 	779.221 	0 	2.28428e-32
0.0574942 	2.20117e+06 	0.0357562 	793.199 	1.79476e-13 	-1.79476e-13
0.058494 	2.20251e+06 	0.0373476 	807.193 	1.05494e-12 	-1.05494e-12
0.0594938 	2.20391e+06 	0.0390367 	821.204 	2.46016e-12 	-2.46016e-12
0.0604936 	2.2054e+06 	0.0408302 	835.232 	2.17802e-12 	-2.17802e-12
0.0614934 	2.20698e+06 	0.0427352 	849.279 	1.96708e-12 	-1.96708e-12
0.0624932 	2.20865e+06 	0.0447595 	863.347 	1.66877e-12 	-1.66877e-12
0.063493 	2.21042e+06 	0.0469114 	877.436 	8.41494e-13 	-8.41494e-13
0.0644928 	2.2123e+06 	0.0491997 	891.548 	2.97929e-13 	-2.97929e-13
0.0654926 	2.21429e+06 	0.0516342 	905.684 	1.64897e-13 	-1.64897e-13
0.0664924 	2.21641e+06 	0.0542251 	919.847 	4.66331e-13 	-4.66331e-13
0.0674922 	2.21866e+06 	0.0569836 	934.037 	1.2424e-12 	-1.2424e-12
0.068492 	2.22105e+06 	0.0599217 	948.257 	9.45585e-13 	-9.45585e-13
0.0694918 	2.22359e+06 	0.0630524 	962.508 	8.52472e-13 	-8.52472e-13
0.0704916 	2.2263e+06 	0.0663895 	976.794 	7.75137e-13 	-7.75137e-13
0.0714915 	2.22918e+06 	0.0699481 	991.116 	6.06841e-13 	-6.06841e-13
0.0724913 	2.23226e+06 	0.0737445 	1005.48 	2.17411e-13 	-2.17411e-13
0.0734911 	2.23554e+06 	0.0777961 	1019.88 	6.43425e-14 	-6.43425e-14
0.0744909 	2.23904e+06 	0.0821218 	1034.33 	1.81793e-13 	-1.81793e-13
0.0754907 	2.24278e+06 	0.0867419 	1048.82 	6.02806e-13 	-6.02806e-13
0.0764906 	2.24678e+06 	0.0916786 	1063.37 	4.17524e-13 	-4.17524e-13
0.0774904 	2.25105e+06 	0.0969557 	1077.97 	4.10135e-13 	-4.10135e-13
0.0784902 	2.25562e+06 	0.102599 	1092.63 	3.45706e-13 	-3.45706e-13
0.07949 	2.26052e+06 	0.108636 	1107.36 	1.06879e-13 	-1.06899e-13
0.0804898 	2.26577e+06 	0.115097 	1122.15 	2.03e-14 	-1.97085e-14
0.0814897 	2.27139e+06 	0.122015 	1137.02 	1.22599e-13 	-1.21538e-13
0.0824895 	2.27743e+06 	0.129425 	1151.96 	4.02913e-13 	-4.03306e-13
0.0834893 	2.28391e+06 	0.137365 	1166.99 	3.97884e-13 	-3.98213e-13
0.0844891 	2.29087e+06 	0.145878 	1182.12 	2.62561e-13 	-2.62412e-13
0.085489 	2.29836e+06 	0.155008 	1197.34 	-1.11583e-13 	1.11751e-13
0.0864888 	2.30641e+06 	0.164805 	1212.67 	-1.5091e-13 	1.51227e-13
0.0874886 	2.31508e+06 	0.175323 	1228.11 	-3.92377e-13 	3.92659e-13
0.0884884 	2.32442e+06 	0.18662 	1243.68 	-3.85747e-13 	3.85498e-13
0.0894883 	2.33449e+06 	0.198761 	1259.38 	-3.85556e-13 	3.85633e-13
0.0904881 	2.34535e+06 	0.211815 	1275.22 	-5.43843e-13 	5.43793e-13
0.0914879 	2.35709e+06 	0.22586 	1291.22 	-4.20839e-13 	4.20527e-13
0.0924877 	2.36977e+06 	0.240979 	1307.39 	-3.81939e-13 	3.8199e-13
0.0934876 	2.38349e+06 	0.257266 	1323.74 	-4.11715e-13 	4.12115e-13
0.0944874 	2.39833e+06 	0.274823 	1340.29 	-3.78473e-13 	3.78726e-13
0.0954872 	2.41442e+06 	0.293762 	1357.06 	-3.74773e-13 	3.74962e-13
0.0964871 	2.43187e+06 	0.314211 	1374.05 	-4.35547e-13 	4.35414e-13
0.0974869 	2.45081e+06 	0.336307 	1391.3 	-3.78129e-13 	3.7837e-13
0.0984867 	2.47139e+06 	0.360206 	1408.81 	-2.56367e-13 	2.63332e-13
0.0994866 	2.49378e+06 	0.386081 	1426.62 	-1.21186e-13 	1.27134e-13
0.100486 	2.51817e+06 	0.414128 	1444.75 	-3.4431e-14 	3.92274e-14
0.101486 	2.54475e+06 	0.444564 	1463.22 	0 	4.51919e-34
0.102486 	2.57378e+06 	0.477638 	1482.07 	0 	0
0.103486 	2.6055e+06 	0.513628 	1501.32 	0 	5.61249e-15
0.104486 	2.64024e+06 	0.552854 	1521.01 	0 	-4.95425e-15
0.105486 	2.67833e+06 	0.59568 	1541.18 	4.30458e-14 	-4.74065e-14
0.106485 	2.72015e+06 	0.642524 	1561.88 	7.2239e-16 	-4.6169e-15
0.107485 	2.76617e+06 	0.693867 	1583.14 	4.67651e-14 	-4.96321e-14
0.108485 	2.8169e+06 	0.750269 	1605.01 	5.01161e-14 	-4.8648e-14
0.109485 	2.87294e+06 	0.812378 	1627.56 	2.34615e-14 	-2.34336e-14
0.110485 	2.93497e+06 	0.880955 	1650.83 	1.882e-14 	-1.88016e-14
0.111485 	3.0038e+06 	0.956894 	1674.88 	1.13519e-13 	-1.13523e-13
0.112484 	3.08036e+06 	1.04125 	1699.79 	1.21593e-13 	-1.2154e-13
0.113484 	3.16573e+06 	1.13528 	1725.62 	8.74339e-14 	-8.7334e-14
0.114484 	3.26114e+06 	1.24046 	1752.4 	1.53565e-13 	-1.53553e-13
0.115484 	3.36798e+06 	1.35855 	1780.18 	2.42356e-13 	-2.42354e-13
0.116484 	3.48774e+06 	1.49163 	1808.94 	2.2085e-13 	-2.20812e-13
0.117484 	3.62141e+06 	1.64063 	1838.73 	1.77057e-13 	-1.77117e-13
0.118483 	3.77007e+06 	1.80615 	1869.42 	1.37617e-13 	-1.37081e-13
0.119483 	3.93504e+06 	1.99145 	1900.57 	4.04769e-14 	-3.99932e-14
0.120483 	4.11639e+06 	2.19943 	1931.6 	2.61586e-14 	-2.61578e-14
0.121483 	4.31232e+06 	2.43232 	1961.56 	8.44166e-14 	-8.44167e-14
0.122483 	4.51755e+06 	2.69087 	1988.88 	5.61159e-14 	-5.6116e-14
0.123483 	4.72045e+06 	2.97268 	2011.06 	3.46859e-14 	-3.46859e-14
0.124482 	4.89862e+06 	3.26911 	2024.12 	1.80674e-14 	-1.80674e-14
0.125482 	5.01229e+06 	3.5602 	2021.76 	1.08858e-14 	-1.08858e-14
0.126482 	4.99666e+06 	3.80725 	1994.1 	5.14763e-15 	-5.14763e-15
0.127482 	4.7574e+06 	3.94468 	1925.55 	1.77623e-15 	-1.77623e-15
0.128482 	4.18365e+06 	3.87882 	1791.63 	5.95203e-16 	-5.95203e-16
0.129482 	3.20675e+06 	3.51345 	1555.41 	0 	0
0.130481 	1.93381e+06 	2.83043 	1171.92 	0 	0
0.131481 	791218 	2.00688 	648.867 	0 	0
0.132481 	219991 	1.40767 	182.313 	-1.15457e-15 	1.15457e-15
0.133481 	107547 	1.19255 	16.9507 	-8.92582e-15 	8.92582e-15
0.134481 	100299 	1.16295 	0.745502 	-2.3352e-14 	2.3352e-14
0.135481 	100009 	1.16109 	0.0289616 	-2.17079e-14 	2.17079e-14
0.13648 	99998 	1.161 	0.00111321 	-1.67833e-15 	1.67833e-15
0.13748 	99997.6 	1.161 	4.25174e-05 	0 	0
0.13848 	99997.6 	1.161 	1.61378e-06 	0 	0
0.13948 	99997.6 	1.161 	6.08679e-08 	0 	0
0.14048 	99997.6 	1.161 	2.28103e-09 	0 	0
0.14148 	99997.6 	1.161 	8.95253e-11 	-1.84297e-15 	1.84297e-15
0.14248 	99997.6 	1.161 	1.10052e-11 	-9.2636e-15 	9.2636e-15
0.143479 	99997.6 	1.161 	7.79317e-12 	0 	0
0.144479 	99997.6 	1.161 	4.57023e-12 	0 	0
0.145479 	99997.6 	1.161 	-2.45667e-13 	0 	0
0.146479 	99997.6 	1.161 	-3.44147e-13 	0 	0
0.147479 	99997.6 	1.161 	-5.99484e-13 	0 	0
0.148479 	99997.6 	1.161 	-3.95795e-12 	0 	0
0.149478 	99997.6 	1.161 	7.85439e-14 	5.05464e-15 	-5.05464e-15
0.150478 	99997.6 	1.161 	-2.32962e-12 	0 	0
0.151478 	99997.6 	1.161 	2.76e-12 	-4.92419e-15 	4.92419e-15
0.152478 	99997.6 	1.161 	5.66047e-12 	0 	0
0.153478 	99997.6 	1.161 	3.56324e-12 	3.21772e-15 	-3.21772e-15
0.154478 	99997.6 	1.161 	5.7422e-12 	-3.13717e-15 	3.13717e-15
0.155477 	99997.6 	1.161 	1.3347e-12 	0 	0
0.156477 	99997.6 	1.161 	-6.39448e-13 	-1.22547e-16 	1.26608e-16
0.157477 	99997.6 	1.161 	-3.76903e-12 	-9.40942e-15 	9.42085e-15
0.158477 	99997.6 	1.161 	-2.03549e-12 	-9.52433e-15 	9.54089e-15
0.159477 	99997.6 	1.161 	-3.19779e-12 	-1.86092e-14 	1.86307e-14
0.160477 	99997.6 	1.161 	-4.98866e-12 	-1.87618e-14 	1.87754e-14
0.161476 	99997.6 	1.161 	4.11864e-12 	-1.01988e-14 	1.02056e-14
0.162476 	99997.6 	1.161 	7.40921e-12 	-1.03512e-14 	1.03512e-14
0.163476 	99997.6 	1.161 	-1.69771e-12 	-2.09554e-14 	2.09554e-14
0.164476 	99997.6 	1.161 	-4.01525e-12 	-6.23796e-15 	6.23796e-15
0.165476 	99997.6 	1.161 	-5.0823e-12 	0 	0
0.166476 	99997.6 	1.161 	-7.113e-12 	0 	0
0.167476 	99997.6 	1.161 	-2.76235e-12 	4.02859e-15 	-4.02859e-15
0.168475 	99997.6 	1.161 	-4.85966e-12 	0 	0
0.169475 	99997.6 	1.161 	-2.04224e-12 	0 	0
0.170475 	99997.6 	1.161 	8.0702e-13 	0 	0
0.171475 	99997.6 	1.161 	1.48638e-12 	-3.84134e-15 	3.82252e-15
0.172475 	99997.6 	1.161 	3.72935e-12 	0 	-3.93101e-17
0.173475 	99997.6 	1.161 	1.58342e-12 	0 	0
0.174474 	99997.6 	1.161 	-5.88863e-13 	-7.42402e-15 	7.42402e-15
0.175474 	99997.6 	1.161 	-4.32927e-12 	-7.38039e-15 	7.38039e-15
0.176474 	99997.6 	1.161 	-8.79177e-12 	-4.27187e-17 	4.27187e-17
0.177474 	99997.6 	1.161 	-4.49012e-12 	0 	0
0.178474 	99997.6 	1.161 	3.92382e-12 	-3.15037e-17 	3.15037e-17
0.179474 	99997.6 	1.161 	1.98711e-13 	6.99362e-15 	-6.99362e-15
0.180473 	99997.6 	1.161 	-4.34394e-12 	6.96256e-15 	-6.96256e-15
0.181473 	99997.6 	1.161 	-5.68845e-12 	3.18585e-17 	-3.18585e-17
0.182473 	99997.6 	1.161 	-6.75777e-12 	0 	0
0.183473 	99997.6 	1.161 	-5.85427e-12 	0 	0
0.184473 	99997.6 	1.161 	3.1201e-12 	0 	0
0.185473 	99997.6 	1.161 	1.07969e-11 	0 	0
0.186473 	99997.6 	1.161 	6.57935e-12 	0 	0
0.187472 	99997.6 	1.161 	2.58203e-12 	0 	0
0.188472 	99997.6 	1.161 	-9.20308e-13 	0 	0
0.189472 	99997.6 	1.161 	8.08911e-13 	0 	0
0.190472 	99997.6 	1.161 	-7.16837e-13 	3.11337e-15 	-3.11337e-15
0.191472 	99997.6 	1.161 	-1.10749e-12 	0 	0
0.192472 	99997.6 	1.161 	1.04306e-12 	0 	0
0.193471 	99997.6 	1.161 	-9.11698e-13 	-2.02361e-15 	2.02361e-15
0.194471 	99997.6 	1.161 	-5.91239e-13 	1.98084e-15 	-1.98084e-15
0.195471 	99997.6 	1.161 	3.44248e-12 	0 	0
0.196471 	99997.6 	1.161 	7.94569e-12 	-2.92713e-15 	2.92713e-15
0.197471 	99997.6 	1.161 	6.6211e-12 	0 	0
0.198471 	99997.6 	1.161 	4.8094e-12 	0 	0
0.199471 	99997.6 	1.161 	-3.28232e-12 	5.68433e-15 	-5.68144e-15
0.20047 	99997.6 	1.161 	-8.91562e-12 	5.66078e-15 	-5.65337e-15
0.20147 	99997.6 	1.161 	8.22196e-13 	3.30793e-17 	-3.02454e-17
0.20247 	99997.6 	1.161 	3.27326e-12 	0 	0
0.20347 	99997.6 	1.161 	1.65746e-12 	-7.55771e-16 	7.55771e-16
0.20447 	99997.6 	1.161 	1.21451e-12 	-6.93373e-15 	6.93373e-15
0.20547 	99997.6 	1.161 	-1.64143e-12 	-7.67252e-15 	7.67252e-15
0.206469 	99997.6 	1.161 	-4.59383e-12 	-3.0739e-15 	3.0739e-15
0.207469 	99997.6 	1.161 	-9.28174e-12 	-3.79666e-15 	3.79666e-15
0.208469 	99997.6 	1.161 	-1.84691e-12 	7.09536e-16 	-7.09536e-16
0.209469 	99997.6 	1.161 	7.99119e-12 	0 	0
0.210469 	99997.6 	1.161 	8.46012e-12 	0 	0
0.211469 	99997.6 	1.161 	3.44035e-12 	-2.43799e-15 	2.43799e-15
0.212468 	99997.6 	1.161 	8.48453e-13 	-9.88054e-15 	9.88054e-15
0.213468 	99997.6 	1.161 	-2.92247e-12 	-1.22829e-14 	1.22829e-14
0.214468 	99997.6 	1.161 	-4.69506e-12 	-1.95972e-14 	1.95972e-14
0.215468 	99997.6 	1.161 	5.59208e-13 	-2.19555e-14 	2.19555e-14
0.216468 	99997.6 	1.161 	-3.37956e-12 	-9.75529e-15 	9.75529e-15
0.217468 	99997.6 	1.161 	-5.76866e-12 	-2.46634e-15 	2.46634e-15
0.218468 	99997.6 	1.161 	-8.52158e-13 	0 	0
0.219467 	99997.6 	1.161 	2.66167e-12 	0 	0
0.220467 	99997.6 	1.161 	6.93787e-12 	0 	0
0.221467 	99997.6 	1.161 	4.71452e-12 	0 	0
0.222467 	99997.6 	1.161 	3.38778e-12 	0 	0
0.223467 	99997.6 	1.161 	8.71808e-12 	2.08928e-15 	-2.08928e-15
0.224467 	99997.6 	1.161 	3.36509e-12 	8.66413e-15 	-8.66413e-15
0.225466 	99997.6 	1.161 	-5.08123e-12 	1.78616e-15 	-1.78616e-15
0.226466 	99997.6 	1.161 	-1.5734e-12 	-2.83699e-15 	2.83699e-15
0.227466 	99997.6 	1.161 	-1.65904e-13 	-1.18047e-14 	1.18047e-14
0.228466 	99997.6 	1.161 	-3.30555e-12 	-7.64935e-15 	7.64935e-15
0.229466 	99997.6 	1.161 	-3.10435e-12 	-7.83973e-15 	7.83973e-15
0.230466 	99997.6 	1.161 	-4.00842e-12 	-1.23008e-14 	1.23008e-14
0.231466 	99997.6 	1.161 	-1.95579e-12 	-4.01512e-15 	4.01512e-15
0.232465 	99997.6 	1.161 	-2.29779e-12 	0 	0
0.233465 	99997.6 	1.161 	-9.26686e-12 	0 	0
0.234465 	99997.6 	1.161 	-3.2173e-12 	0 	0
0.235465 	99997.6 	1.161 	7.7563e-12 	0 	0
0.236465 	99997.6 	1.161 	1.04202e-11 	0 	0
0.237465 	99997.6 	1.161 	3.22399e-12 	0 	0
0.238464 	99997.6 	1.161 	-4.4699e-12 	0 	0
0.239464 	99997.6 	1.161 	-4.82114e-12 	-2.85142e-15 	2.85142e-15
0.240464 	99997.6 	1.161 	-3.96616e-12 	-9.60286e-15 	9.60286e-15
0.241464 	99997.6 	1.161 	-4.17259e-12 	-4.62224e-15 	4.62224e-15
0.242464 	99997.6 	1.161 	-2.49017e-12 	-1.16821e-15 	1.16821e-15
0.243464 	99997.6 	1.161 	4.07841e-12 	1.37418e-14 	-1.37418e-14
0.244464 	99997.6 	1.161 	3.32395e-12 	1.71998e-14 	-1.71998e-14
0.245463 	99997.6 	1.161 	-2.03053e-12 	1.49622e-14 	-1.49622e-14
0.246463 	99997.6 	1.161 	-3.37838e-12 	2.98777e-15 	-2.98777e-15
0.247463 	99997.6 	1.161 	1.21011e-12 	2.22394e-15 	-2.22394e-15
0.248463 	99997.6 	1.161 	9.01888e-12 	5.14184e-15 	-5.14184e-15
0.249463 	99997.6 	1.161 	6.06148e-12 	-2.89115e-15 	2.89115e-15
0.250463 	99997.6 	1.161 	-3.91781e-12 	-5.45988e-18 	5.45988e-18
0.251462 	99997.6 	1.161 	-8.57986e-12 	0 	0
0.252462 	99997.6 	1.161 	-7.4256e-12 	0 	0
0.253462 	99997.6 	1.161 	-4.81738e-12 	0 	0
0.254462 	99997.6 	1.161 	-2.08434e-13 	0 	0
0.255462 	99997.6 	1.161 	8.21748e-12 	0 	0
0.256462 	99997.6 	1.161 	4.59709e-12 	-1.70518e-15 	1.70518e-15
0.257462 	99997.6 	1.161 	-1.49716e-12 	-6.81817e-15 	6.81817e-15
0.258461 	99997.6 	1.161 	-3.28727e-12 	-1.70579e-15 	1.70579e-15
0.259461 	99997.6 	1.161 	-5.10556e-12 	0 	0
0.260461 	99997.6 	1.161 	1.56559e-12 	0 	0
0.261461 	99997.6 	1.161 	4.90564e-12 	0 	0
0.262461 	99997.6 	1.161 	2.04136e-12 	1.14741e-15 	-1.14741e-15
0.263461 	99997.6 	1.161 	-2.1264e-12 	5.55279e-15 	-5.55279e-15
0.26446 	99997.6 	1.161 	8.72293e-14 	1.3168e-14 	-1.3168e-14
0.26546 	99997.6 	1.161 	6.94681e-12 	1.13639e-14 	-1.13639e-14
0.26646 	99997.6 	1.161 	6.949e-13 	1.27667e-14 	-1.27667e-14
0.26746 	99997.6 	1.161 	-8.48241e-12 	5.3247e-15 	-5.3247e-15
0.26846 	99997.6 	1.161 	-4.18259e-12 	1.08494e-15 	-1.08494e-15
0.26946 	99997.6 	1.161 	5.15447e-13 	0 	0
0.27046 	99997.6 	1.161 	3.34796e-13 	0 	0
0.271459 	99997.6 	1.161 	-1.18023e-12 	0 	0
0.272459 	99997.6 	1.161 	-2.80517e-12 	0 	0
0.273459 	99997.6 	1.161 	-1.91978e-12 	0 	0
0.274459 	99997.6 	1.161 	2.94937e-12 	-1.48964e-15 	1.48964e-15
0.275459 	99997.6 	1.161 	5.41611e-12 	-5.95609e-15 	5.95609e-15
0.276459 	99997.6 	1.161 	8.14089e-12 	-1.48984e-15 	1.48984e-15
0.277458 	99997.6 	1.161 	1.26897e-11 	0 	0
0.278458 	99997.6 	1.161 	8.18973e-12 	0 	0
0.279458 	99997.6 	1.161 	-5.64525e-12 	0 	0
0.280458 	99997.6 	1.161 	-3.51812e-12 	0 	0
0.281458 	99997.6 	1.161 	6.97872e-12 	9.41209e-16 	-9.41209e-16
0.282458 	99997.6 	1.161 	3.03885e-12 	4.71753e-15 	-4.71753e-15
0.283457 	99997.6 	1.161 	-5.88683e-12 	0 	0
0.284457 	99997.6 	1.161 	-5.25579e-12 	-4.65805e-15 	4.65805e-15
0.285457 	99997.6 	1.161 	-4.14634e-12 	-9.34518e-16 	9.34518e-16
0.286457 	99997.6 	1.161 	-4.37382e-12 	0 	0
0.287457 	99997.6 	1.161 	-5.45211e-13 	0 	0
0.288457 	99997.6 	1.161 	-1.2854e-12 	-2.716e-15 	2.716e-15
0.289457 	99997.6 	1.161 	-4.30173e-13 	0 	0
0.290456 	99997.6 	1.161 	3.35187e-12 	0 	0
0.291456 	99997.6 	1.161 	2.72629e-12 	1.78032e-15 	-1.78032e-15
0.292456 	99997.6 	1.161 	-5.22858e-13 	-1.75544e-15 	1.75544e-15
0.293456 	99997.6 	1.161 	-2.58979e-12 	0 	0
0.294456 	99997.6 	1.161 	1.04232e-12 	0 	0
0.295456 	99997.6 	1.161 	4.08095e-12 	1.73221e-15 	-1.73221e-15
0.296455 	99997.6 	1.161 	4.72552e-12 	-1.707e-15 	1.707e-15
0.297455 	99997.6 	1.161 	6.68504e-12 	0 	0
0.298455 	99997.6 	1.161 	-4.70496e-13 	0 	0
0.299455 	99997.6 	1.161 	-1.09046e-11 	0 	0
0.300455 	99997.6 	1.161 	-7.80221e-12 	-2.50277e-15 	2.50277e-15
0.301455 	99997.6 	1.161 	2.97352e-12 	-4.00604e-19 	4.00604e-19
0.302455 	99997.6 	1.161 	6.79015e-12 	-2.4705e-15 	2.4705e-15
0.303454 	99997.6 	1.161 	2.96499e-12 	0 	0
0.304454 	99997.6 	1.161 	-3.71897e-12 	2.43833e-15 	-2.43833e-15
0.305454 	99997.6 	1.161 	-4.56607e-12 	0 	0
0.306454 	99997.6 	1.161 	-5.63667e-12 	0 	0
0.307454 	99997.6 	1.161 	-4.33916e-12 	0 	0
0.308454 	99997.6 	1.161 	1.41532e-12 	-4.7505e-15 	4.7505e-15
0.309453 	99997.6 	1.161 	9.30886e-13 	-4.73534e-15 	4.73534e-15
0.310453 	99997.6 	1.161 	-7.4785e-13 	-1.60424e-17 	1.60424e-17
0.311453 	99997.6 	1.161 	4.37403e-12 	0 	0
0.312453 	99997.6 	1.161 	1.48516e-12 	0 	0
0.313453 	99997.6 	1.161 	-1.44184e-11 	0 	0
0.314453 	99997.6 	1.161 	-1.50197e-11 	2.28433e-15 	-2.28433e-15
0.315453 	99997.6 	1.161 	-1.65549e-12 	0 	0
0.316452 	99997.6 	1.161 	4.90015e-12 	0 	0
0.317452 	99997.6 	1.161 	1.16439e-11 	-3.84066e-16 	3.84066e-16
0.318452 	99997.6 	1.161 	1.52191e-11 	-5.23578e-15 	5.23578e-15
0.319452 	99997.6 	1.161 	7.6455e-12 	-1.44978e-14 	1.44978e-14
0.320452 	99997.6 	1.161 	-2.79547e-12 	-1.92886e-14 	1.92886e-14
0.321452 	99997.6 	1.161 	-5.69229e-12 	-1.96611e-14 	1.96611e-14
0.322451 	99997.6 	1.161 	-1.21597e-12 	-1.5671e-14 	1.5671e-14
0.323451 	99997.6 	1.161 	2.66226e-12 	-1.60376e-14 	1.60376e-14
0.324451 	99997.6 	1.161 	1.63427e-12 	-1.20953e-14 	1.20953e-14
0.325451 	99997.6 	1.161 	2.2535e-12 	-3.89607e-15 	3.89607e-15
0.326451 	99997.6 	1.161 	3.17941e-12 	0 	0
0.327451 	99997.6 	1.161 	8.77108e-14 	0 	0
0.328451 	99997.6 	1.161 	-5.5826e-12 	2.09494e-15 	-2.09494e-15
0.32945 	99997.6 	1.161 	-7.5337e-12 	0 	0
0.33045 	99997.6 	1.161 	1.26362e-12 	0 	0
0.33145 	99997.6 	1.161 	6.77328e-12 	0 	0
0.33245 	99997.6 	1.161 	8.11193e-12 	0 	0
0.33345 	99997.6 	1.161 	3.12075e-12 	-4.06505e-15 	4.06505e-15
0.33445 	99997.6 	1.161 	-2.45604e-12 	-4.0534e-15 	4.0534e-15
0.33545 	99997.6 	1.161 	-2.28869e-12 	-1.27789e-17 	1.27789e-17
0.336449 	99997.6 	1.161 	-1.52579e-12 	0 	0
0.337449 	99997.6 	1.161 	-4.6134e-12 	0 	0
0.338449 	99997.6 	1.161 	-5.5909e-12 	0 	0
0.339449 	99997.6 	1.161 	-2.89703e-12 	0 	0
0.340449 	99997.6 	1.161 	-3.27821e-12 	0 	0
0.341449 	99997.6 	1.161 	4.44188e-12 	-1.9383e-15 	1.9383e-15
0.342448 	99997.6 	1.161 	4.09186e-12 	0 	0
0.343448 	99997.6 	1.161 	-6.11336e-12 	0 	0
0.344448 	99997.6 	1.161 	-7.44522e-12 	1.90417e-15 	-1.90417e-15
0.345448 	99997.6 	1.161 	-2.51557e-12 	7.08952e-19 	-7.08952e-19
0.346448 	99997.6 	1.161 	3.26107e-12 	1.88334e-15 	-1.88334e-15
0.347448 	99997.6 	1.161 	4.07738e-12 	0 	0
0.348448 	99997.6 	1.161 	-5.83926e-13 	-3.09444e-15 	3.09444e-15
0.349447 	99997.6 	1.161 	-1.66182e-12 	-2.46129e-15 	2.46129e-15
0.350447 	99997.6 	1.161 	1.44701e-12 	-5.52102e-15 	5.52102e-15
0.351447 	99997.6 	1.161 	-3.81887e-12 	-4.89384e-15 	4.89384e-15
0.352447 	99997.6 	1.161 	-1.07298e-12 	-6.20021e-16 	6.20021e-16
0.353447 	99997.6 	1.161 	7.99675e-12 	0 	0
0.354447 	99997.6 	1.161 	5.12479e-12 	0 	0
0.355446 	99997.6 	1.161 	2.89549e-12 	1.78786e-15 	-1.78786e-15
0.356446 	99997.6 	1.161 	4.84077e-12 	0 	0
0.357446 	99997.6 	1.161 	1.40869e-12 	-4.24041e-15 	4.24041e-15
0.358446 	99997.6 	1.161 	-5.3801e-12 	-4.93151e-15 	4.93151e-15
0.359446 	99997.6 	1.161 	-6.68846e-12 	-2.10969e-15 	2.10969e-15
0.360446 	99997.6 	1.161 	-4.82626e-12 	-2.79125e-15 	2.79125e-15
0.361446 	99997.6 	1.161 	-4.7693e-12 	0 	0
0.362445 	99997.6 	1.161 	-2.02866e-12 	0 	0
0.363445 	99997.6 	1.161 	5.15403e-12 	-1.70983e-15 	1.70983e-15
0.364445 	99997.6 	1.161 	3.7134e-12 	1.17724e-18 	-1.17724e-18
0.365445 	99997.6 	1.161 	1.26994e-12 	-1.69115e-15 	1.69115e-15
0.366445 	99997.6 	1.161 	3.1281e-12 	0 	0
0.367445 	99997.6 	1.161 	-5.53733e-13 	1.6732e-15 	-1.6732e-15
0.368444 	99997.6 	1.161 	-3.11382e-12 	0 	0
0.369444 	99997.6 	1.161 	-1.68322e-12 	0 	0
0.370444 	99997.6 	1.161 	-3.60463e-12 	-7.97634e-16 	7.97634e-16
0.371444 	99997.6 	1.161 	-3.44887e-12 	-4.87653e-15 	4.87653e-15
0.372444 	99997.6 	1.161 	3.96511e-12 	-5.66569e-15 	5.66569e-15
0.373444 	99997.6 	1.161 	7.3859e-12 	-9.69877e-15 	9.69877e-15
0.374444 	99997.6 	1.161 	2.08084e-12 	-1.04783e-14 	1.04783e-14
0.375443 	99997.6 	1.161 	-2.42902e-12 	-8.03859e-15 	8.03859e-15
0.376443 	99997.6 	1.161 	-2.60467e-12 	-2.4142e-15 	2.4142e-15
0.377443 	99997.6 	1.161 	-7.5271e-13 	0 	0
0.378443 	99997.6 	1.161 	-4.1296e-12 	0 	0
0.379443 	99997.6 	1.161 	-3.38822e-12 	1.56995e-15 	-1.56995e-15
0.380443 	99997.6 	1.161 	-2.33451e-12 	5.84293e-19 	-5.84293e-19
0.381442 	99997.6 	1.161 	-5.67568e-12 	1.55343e-15 	-1.55343e-15
0.382442 	99997.6 	1.161 	-2.80544e-12 	0 	0
0.383442 	99997.6 	1.161 	-1.83995e-12 	0 	0
0.384442 	99997.6 	1.161 	1.93701e-12 	-1.52825e-15 	1.52825e-15
0.385442 	99997.6 	1.161 	4.47963e-12 	0 	0
0.386442 	99997.6 	1.161 	4.94477e-12 	0 	0
0.387442 	99997.6 	1.161 	3.78381e-12 	0 	0
0.388441 	99997.6 	1.161 	2.62913e-12 	2.99565e-15 	-2.99565e-15
0.389441 	99997.6 	1.161 	-5.78138e-13 	2.98812e-15 	-2.98812e-15
0.390441 	99997.6 	1.161 	-3.07725e-12 	8.00328e-18 	-8.00328e-18
0.391441 	99997.6 	1.161 	2.4015e-12 	0 	0
0.392441 	99997.6 	1.161 	1.33064e-12 	0 	0
0.393441 	99997.6 	1.161 	-2.92333e-12 	1.45999e-15 	-1.45999e-15
0.39444 	99997.6 	1.161 	-4.81743e-12 	0 	0
0.39544 	99997.6 	1.161 	-2.29702e-12 	0 	0
0.39644 	99997.6 	1.161 	8.11382e-13 	0 	0
0.39744 	99997.6 	1.161 	3.78174e-12 	0 	0
0.39844 	99997.6 	1.161 	2.5913e-12 	0 	0
0.39944 	99997.6 	1.161 	2.31935e-13 	0 	0
0.40044 	99997.6 	1.161 	-3.66258e-12 	0 	0
0.401439 	99997.6 	1.161 	-1.75235e-12 	0 	0
0.402439 	99997.6 	1.161 	5.28048e-12 	-1.1614e-16 	1.1614e-16
0.403439 	99997.6 	1.161 	3.82366e-12 	2.56518e-15 	-2.56518e-15
0.404439 	99997.6 	1.161 	1.63163e-13 	8.00265e-15 	-8.00265e-15
0.405439 	99997.6 	1.161 	2.16049e-12 	1.06573e-14 	-1.06573e-14
0.406439 	99997.6 	1.161 	2.40182e-12 	1.05573e-14 	-1.05573e-14
0.407438 	99997.6 	1.161 	-9.60841e-13 	3.90487e-15 	-3.90487e-15
0.408438 	99997.6 	1.161 	-3.18622e-12 	0 	0
0.409438 	99997.6 	1.161 	7.08852e-13 	-1.34755e-15 	1.34755e-15
0.410438 	99997.6 	1.161 	3.03115e-12 	0 	0
0.411438 	99997.6 	1.161 	-2.31151e-12 	0 	0
0.412438 	99997.6 	1.161 	-4.61626e-12 	0 	0
0.413438 	99997.6 	1.161 	-4.05653e-12 	0 	0
0.414437 	99997.6 	1.161 	2.51963e-13 	0 	0
0.415437 	99997.6 	1.161 	3.95481e-13 	0 	0
0.416437 	99997.6 	1.161 	-7.75655e-13 	0 	0
0.417437 	99997.6 	1.161 	7.02738e-13 	0 	0
0.418437 	99997.6 	1.161 	2.4301e-13 	-8.62347e-16 	8.62347e-16
0.419437 	99997.6 	1.161 	4.63599e-12 	8.54628e-16 	-8.54628e-16
0.420436 	99997.6 	1.161 	7.55332e-12 	0 	0
0.421436 	99997.6 	1.161 	5.50148e-12 	0 	0
0.422436 	99997.6 	1.161 	4.48769e-12 	-1.26729e-15 	1.26729e-15
0.423436 	99997.6 	1.161 	2.36724e-12 	-1.79693e-18 	1.79693e-18
0.424436 	99997.6 	1.161 	7.30923e-13 	-1.25557e-15 	1.25557e-15
0.425436 	99997.6 	1.161 	-1.95003e-12 	-1.53986e-18 	1.53986e-18
0.426436 	99997.6 	1.161 	-3.67455e-12 	-1.24347e-15 	1.24347e-15
0.427435 	99997.6 	1.161 	-6.90115e-13 	0 	0
0.428435 	99997.6 	1.161 	4.08109e-12 	-8.22838e-16 	8.22838e-16
0.429435 	99997.6 	1.161 	6.87904e-12 	8.14527e-16 	-8.14527e-16
0.430435 	99997.6 	1.161 	2.71733e-12 	0 	0
0.431435 	99997.6 	1.161 	-9.6902e-12 	1.21433e-15 	-1.21433e-15
0.432435 	99997.6 	1.161 	-1.33227e-11 	5.65208e-19 	-5.65208e-19
0.433434 	99997.6 	1.161 	-7.74615e-12 	1.20331e-15 	-1.20331e-15
0.434434 	99997.6 	1.161 	-3.40667e-12 	0 	0
0.435434 	99997.6 	1.161 	2.58409e-13 	7.96142e-16 	-7.96142e-16
0.436434 	99997.6 	1.161 	6.22062e-12 	-7.89161e-16 	7.89161e-16
0.437434 	99997.6 	1.161 	2.20028e-12 	0 	0
0.438434 	99997.6 	1.161 	9.22813e-13 	-6.90004e-16 	6.90004e-16
0.439434 	99997.6 	1.161 	7.76791e-12 	-3.72159e-15 	3.72159e-15
0.440433 	99997.6 	1.161 	-3.81752e-12 	-9.07399e-15 	9.07399e-15
0.441433 	99997.6 	1.161 	-8.58406e-12 	-7.73466e-15 	7.73466e-15
0.442433 	99997.6 	1.161 	1.20631e-12 	0 	0
0.443433 	99997.6 	1.161 	3.141e-12 	8.27224e-15 	-8.27224e-15
0.444433 	99997.6 	1.161 	2.56088e-12 	9.62746e-15 	-9.62746e-15
0.445433 	99997.6 	1.161 	-1.52126e-12 	4.12813e-15 	-4.12813e-15
0.446433 	99997.6 	1.161 	-8.10406e-12 	9.26006e-16 	-9.26006e-16
0.447432 	99997.6 	1.161 	-1.37565e-12 	0 	0
0.448432 	99997.6 	1.161 	8.66265e-12 	9.53667e-16 	-9.53667e-16
0.449432 	99997.6 	1.161 	9.80251e-12 	4.14513e-15 	-4.14513e-15
0.450432 	99997.6 	1.161 	1.86515e-12 	6.24716e-16 	-6.24716e-16
0.451432 	99997.6 	1.161 	-6.24267e-12 	-6.57899e-16 	6.57899e-16
0.452432 	99997.6 	1.161 	-2.06823e-12 	-4.11861e-15 	4.11861e-15
0.453431 	99997.6 	1.161 	6.79146e-12 	-9.56032e-16 	9.56032e-16
0.454431 	99997.6 	1.161 	7.18012e-12 	0 	0
0.455431 	99997.6 	1.161 	-1.44477e-12 	0 	0
0.456431 	99997.6 	1.161 	-4.63199e-12 	-1.65212e-15 	1.65212e-15
0.457431 	99997.6 	1.161 	-2.36193e-12 	-5.46187e-15 	5.46187e-15
0.458431 	99997.6 	1.161 	-1.90685e-13 	-1.14098e-14 	1.14098e-14
0.459431 	99997.6 	1.161 	2.01529e-12 	-1.38934e-14 	1.38934e-14
0.46043 	99997.6 	1.161 	2.51002e-12 	-1.4002e-14 	1.4002e-14
0.46143 	99997.6 	1.161 	2.7625e-12 	-1.11036e-14 	1.11036e-14
0.46243 	99997.6 	1.161 	1.2455e-12 	-5.27442e-15 	5.27442e-15
0.46343 	99997.6 	1.161 	-1.85617e-12 	-1.57966e-15 	1.57966e-15
0.46443 	99997.6 	1.161 	5.95374e-13 	0 	0
0.46543 	99997.6 	1.161 	2.73599e-13 	0 	0
0.466429 	99997.6 	1.161 	1.05848e-13 	0 	0
0.467429 	99997.6 	1.161 	4.95774e-12 	0 	0
0.468429 	99997.6 	1.161 	-7.82805e-13 	0 	0
0.469429 	99997.6 	1.161 	-3.46797e-12 	0 	0
0.470429 	99997.6 	1.161 	-7.62926e-12 	0 	0
0.471429 	99997.6 	1.161 	-8.49241e-12 	6.73757e-16 	-6.73757e-16
0.472429 	99997.6 	1.161 	2.58889e-12 	3.28943e-15 	-3.28943e-15
0.473428 	99997.6 	1.161 	6.33348e-12 	-1.67467e-16 	1.67467e-16
0.474428 	99997.6 	1.161 	3.2132e-13 	-5.62146e-15 	5.62146e-15
0.475428 	99997.6 	1.161 	-4.72668e-12 	-5.04161e-15 	5.04161e-15
0.476428 	99997.6 	1.161 	-5.93349e-13 	-6.45904e-15 	6.45904e-15
0.477428 	99997.6 	1.161 	4.23996e-12 	-1.90991e-15 	1.90991e-15
0.478428 	99997.6 	1.161 	4.39877e-12 	6.41744e-16 	-6.41744e-16
0.479427 	99997.6 	1.161 	-8.89698e-13 	3.70571e-15 	-3.70571e-15
0.480427 	99997.6 	1.161 	-5.17239e-12 	8.70114e-16 	-8.70114e-16
0.481427 	99997.6 	1.161 	-5.75049e-12 	0 	0
0.482427 	99997.6 	1.161 	-3.19007e-12 	0 	0
0.483427 	99997.6 	1.161 	-7.0767e-12 	0 	0
0.484427 	99997.6 	1.161 	-8.24388e-12 	-1.75892e-17 	1.75892e-17
0.485427 	99997.6 	1.161 	3.25554e-12 	-1.93392e-15 	1.93392e-15
0.486426 	99997.6 	1.161 	4.07017e-12 	1.89982e-15 	-1.89982e-15
0.487426 	99997.6 	1.161 	3.39231e-12 	0 	0
0.488426 	99997.6 	1.161 	2.7242e-12 	-3.75049e-15 	3.75049e-15
0.489426 	99997.6 	1.161 	-5.69546e-12 	-9.37641e-15 	9.37641e-15
0.490426 	99997.6 	1.161 	-7.60226e-12 	-1.01447e-14 	1.01447e-14
0.491426 	99997.6 	1.161 	-4.71855e-12 	-9.00997e-15 	9.00997e-15
0.492425 	99997.6 	1.161 	3.76173e-12 	-4.13181e-15 	4.13181e-15
0.493425 	99997.6 	1.161 	8.23106e-12 	-1.13366e-15 	1.13366e-15
0.494425 	99997.6 	1.161 	1.58594e-12 	0 	0
0.495425 	99997.6 	1.161 	6.88343e-12 	0 	0
0.496425 	99997.6 	1.161 	5.15779e-12 	-9.13902e-16 	9.13902e-16
0.497425 	99997.6 	1.161 	6.53888e-13 	-3.65325e-15 	3.65325e-15
0.498425 	99997.6 	1.161 	4.87173e-14 	-9.13799e-16 	9.13799e-16
0.499424 	99997.6 	1.161 	-6.89795e-12 	0 	0
