/*--------------------------------*- C++ -*----------------------------------*\
| =========                 |                                                 |
| \\      /  F ield         | OpenFOAM: The Open Source CFD Toolbox           |
|  \\    /   O peration     | Version:  2312                                  |
|   \\  /    A nd           | Website:  www.openfoam.com                      |
|    \\/     M anipulation  |                                                 |
\*---------------------------------------------------------------------------*/
FoamFile
{
    version     2.0;
    format      ascii;
    arch        "LSB;label=32;scalar=64";
    class       volScalarField;
    location    "0.062";
    object      rho;
}
// * * * * * * * * * * * * * * * * * * * * * * * * * * * * * * * * * * * * * //

dimensions      [1 -3 0 0 0 0 0];

internalField   nonuniform List<scalar> 
100
(
0.435205
0.434875
0.433855
0.432856
0.43167
0.430496
0.429281
0.427935
0.426791
0.425265
0.424263
0.422562
0.42173
0.419889
0.419195
0.417295
0.416646
0.414812
0.414066
0.412443
0.411452
0.410151
0.408826
0.407864
0.40622
0.405499
0.403651
0.403
0.4011
0.400351
0.398515
0.397571
0.395848
0.394703
0.393088
0.391797
0.390271
0.388917
0.387474
0.386138
0.384798
0.383549
0.382346
0.381239
0.380209
0.379284
0.378456
0.377741
0.377132
0.376637
0.376249
0.375971
0.375795
0.375721
0.375742
0.37586
0.376073
0.376395
0.376852
0.377509
0.378487
0.380023
0.382528
0.386654
0.393234
0.40297
0.415852
0.430755
0.445758
0.459034
0.469601
0.477395
0.482922
0.486835
0.489704
0.491942
0.493817
0.495496
0.497077
0.498615
0.500137
0.501655
0.503168
0.504672
0.506157
0.507614
0.509029
0.510393
0.511696
0.512931
0.514093
0.515178
0.516186
0.517117
0.517977
0.518767
0.519496
0.52017
0.520797
0.521251
)
;

boundaryField
{
    sides
    {
        type            zeroGradient;
    }
    empty
    {
        type            empty;
    }
}


// ************************************************************************* //
