/*--------------------------------*- C++ -*----------------------------------*\
| =========                 |                                                 |
| \\      /  F ield         | OpenFOAM: The Open Source CFD Toolbox           |
|  \\    /   O peration     | Version:  2312                                  |
|   \\  /    A nd           | Website:  www.openfoam.com                      |
|    \\/     M anipulation  |                                                 |
\*---------------------------------------------------------------------------*/
FoamFile
{
    version     2.0;
    format      ascii;
    arch        "LSB;label=32;scalar=64";
    class       volScalarField;
    location    "0.062";
    object      T;
}
// * * * * * * * * * * * * * * * * * * * * * * * * * * * * * * * * * * * * * //

dimensions      [0 0 0 1 0 0 0];

internalField   nonuniform List<scalar> 
100
(
226.199
224.687
224.996
223.057
223.669
221.723
222.314
220.764
220.773
220.228
218.942
220.112
216.809
220.331
214.481
220.698
212.181
220.934
210.208
220.744
208.837
219.923
208.199
218.472
208.215
216.609
208.628
214.674
209.141
212.98
209.542
211.705
209.765
210.869
209.854
210.397
209.89
210.181
209.93
210.122
209.994
210.144
210.071
210.192
210.136
210.227
210.164
210.22
210.137
210.158
210.048
210.034
209.898
209.853
209.693
209.623
209.448
209.364
209.19
209.12
208.998
209.037
209.138
209.579
210.361
211.807
213.834
216.443
219.111
221.58
223.404
224.69
225.341
225.677
225.644
225.522
225.196
224.885
224.445
224.057
223.576
223.164
222.681
222.279
221.823
221.457
221.051
220.744
220.403
220.167
219.898
219.739
219.539
219.453
219.314
219.29
219.204
219.224
219.186
219.242
)
;

boundaryField
{
    sides
    {
        type            zeroGradient;
    }
    empty
    {
        type            empty;
    }
}


// ************************************************************************* //
