0.000749886 	1.36345e+06 	0.00848835 	9.05668 	-4.15565e-10 	4.20535e-10
0.0016069 	1.36438e+06 	0.00849762 	16.3097 	-3.9459e-10 	4.0096e-10
0.0025654 	1.36495e+06 	0.00851049 	24.4006 	-4.11834e-10 	4.19061e-10
0.00354676 	1.36534e+06 	0.00852774 	32.9949 	-4.105e-10 	4.18437e-10
0.0045362 	1.36564e+06 	0.00854979 	41.7904 	-3.77885e-10 	3.85142e-10
0.00552938 	1.36589e+06 	0.00857683 	50.6836 	-3.7882e-10 	3.8509e-10
0.0065246 	1.3661e+06 	0.00860901 	59.6312 	-3.71706e-10 	3.76702e-10
0.00752105 	1.36628e+06 	0.00864642 	68.6123 	-3.61595e-10 	3.63932e-10
0.00851829 	1.36645e+06 	0.00868916 	77.6155 	-3.37845e-10 	3.38957e-10
0.00951608 	1.3666e+06 	0.00873731 	86.6341 	-3.065e-10 	3.06527e-10
0.0105143 	1.36674e+06 	0.00879098 	95.664 	-2.80297e-10 	2.80302e-10
0.0115127 	1.36688e+06 	0.00885027 	104.702 	-2.54009e-10 	2.53963e-10
0.0125114 	1.36701e+06 	0.00891529 	113.747 	-2.27486e-10 	2.2744e-10
0.0135103 	1.36714e+06 	0.00898616 	122.798 	-2.01064e-10 	2.01026e-10
0.0145093 	1.36726e+06 	0.00906301 	131.853 	-1.75029e-10 	1.75017e-10
0.0155084 	1.36738e+06 	0.00914598 	140.911 	-1.4955e-10 	1.49536e-10
0.0165076 	1.3675e+06 	0.00923521 	149.973 	-1.25398e-10 	1.2542e-10
0.0175069 	1.36761e+06 	0.00933088 	159.038 	-1.11246e-10 	1.11277e-10
0.0185062 	1.36773e+06 	0.00943315 	168.105 	-1.00773e-10 	1.00771e-10
0.0195056 	1.36785e+06 	0.00954221 	177.174 	-9.51528e-11 	9.51616e-11
0.020505 	1.36796e+06 	0.00965827 	186.246 	-9.19368e-11 	9.19371e-11
0.0215045 	1.36808e+06 	0.00978154 	195.319 	-9.03572e-11 	9.03578e-11
0.022504 	1.3682e+06 	0.00991224 	204.395 	-9.13121e-11 	9.13104e-11
0.0235035 	1.36832e+06 	0.0100506 	213.472 	-9.22994e-11 	9.22933e-11
0.0245031 	1.36844e+06 	0.010197 	222.551 	-9.1157e-11 	9.11519e-11
0.0255027 	1.36857e+06 	0.0103515 	231.631 	-8.82388e-11 	8.82399e-11
0.0265023 	1.36869e+06 	0.0105146 	240.713 	-8.61341e-11 	8.61332e-11
0.0275019 	1.36882e+06 	0.0106865 	249.797 	-8.61251e-11 	8.61273e-11
0.0285015 	1.36896e+06 	0.0108676 	258.882 	-8.15478e-11 	8.15478e-11
0.0295012 	1.36909e+06 	0.0110582 	267.969 	-7.70406e-11 	7.70408e-11
0.0305008 	1.36923e+06 	0.0112587 	277.058 	-7.43609e-11 	7.4361e-11
0.0315005 	1.36937e+06 	0.0114696 	286.148 	-7.09057e-11 	7.09057e-11
0.0325002 	1.36952e+06 	0.0116911 	295.24 	-6.57407e-11 	6.57407e-11
0.0334999 	1.36967e+06 	0.0119238 	304.334 	-6.14765e-11 	6.14765e-11
0.0344996 	1.36983e+06 	0.0121683 	313.429 	-5.6502e-11 	5.6502e-11
0.0354993 	1.36999e+06 	0.0124248 	322.526 	-5.16666e-11 	5.16666e-11
0.036499 	1.37016e+06 	0.0126941 	331.625 	-4.80807e-11 	4.80807e-11
0.0374987 	1.37033e+06 	0.0129767 	340.726 	-4.54683e-11 	4.54683e-11
0.0384985 	1.37051e+06 	0.0132731 	349.829 	-4.39122e-11 	4.39122e-11
0.0394982 	1.37069e+06 	0.0135841 	358.934 	-4.33546e-11 	4.33546e-11
0.040498 	1.37088e+06 	0.0139103 	368.041 	-4.08428e-11 	4.08428e-11
0.0414977 	1.37108e+06 	0.0142525 	377.151 	-3.65469e-11 	3.65469e-11
0.0424975 	1.37128e+06 	0.0146113 	386.262 	-3.31127e-11 	3.31127e-11
0.0434972 	1.37149e+06 	0.0149876 	395.376 	-3.02258e-11 	3.02258e-11
0.044497 	1.37171e+06 	0.0153823 	404.493 	-2.75705e-11 	2.75705e-11
0.0454967 	1.37194e+06 	0.0157963 	413.612 	-2.58994e-11 	2.58994e-11
0.0464965 	1.37218e+06 	0.0162306 	422.733 	-2.34924e-11 	2.34924e-11
0.0474963 	1.37242e+06 	0.0166861 	431.858 	-2.09414e-11 	2.09414e-11
0.0484961 	1.37268e+06 	0.017164 	440.986 	-1.76355e-11 	1.76355e-11
0.0494958 	1.37295e+06 	0.0176654 	450.116 	-1.52764e-11 	1.52764e-11
0.0504956 	1.37323e+06 	0.0181916 	459.25 	-1.2575e-11 	1.2575e-11
0.0514954 	1.37352e+06 	0.0187438 	468.387 	-1.0188e-11 	1.0188e-11
0.0524952 	1.37382e+06 	0.0193234 	477.528 	-8.55775e-12 	8.55775e-12
0.053495 	1.37413e+06 	0.0199319 	486.672 	-6.61513e-12 	6.61513e-12
0.0544948 	1.37446e+06 	0.0205709 	495.82 	-4.93841e-12 	4.93841e-12
0.0554946 	1.3748e+06 	0.0212419 	504.973 	-3.42e-12 	3.42e-12
0.0564944 	1.37516e+06 	0.0219469 	514.129 	-1.31242e-12 	1.31242e-12
0.0574942 	1.37554e+06 	0.0226875 	523.29 	2.89317e-13 	-2.89317e-13
0.058494 	1.37593e+06 	0.0234659 	532.456 	1.85187e-12 	-1.85187e-12
0.0594938 	1.37634e+06 	0.024284 	541.627 	3.3716e-12 	-3.3716e-12
0.0604936 	1.37677e+06 	0.0251442 	550.803 	3.50801e-12 	-3.50801e-12
0.0614934 	1.37722e+06 	0.0260489 	559.984 	3.22804e-12 	-3.22804e-12
0.0624932 	1.37769e+06 	0.0270005 	569.171 	2.5334e-12 	-2.5334e-12
0.063493 	1.37818e+06 	0.0280017 	578.364 	1.68525e-12 	-1.68525e-12
0.0644928 	1.37869e+06 	0.0290554 	587.564 	1.20937e-12 	-1.20937e-12
0.0654926 	1.37924e+06 	0.0301647 	596.77 	1.0934e-12 	-1.0934e-12
0.0664924 	1.3798e+06 	0.0313328 	605.983 	1.34361e-12 	-1.34361e-12
0.0674922 	1.3804e+06 	0.0325631 	615.204 	1.96568e-12 	-1.96568e-12
0.068492 	1.38103e+06 	0.0338594 	624.433 	1.67343e-12 	-1.67343e-12
0.0694918 	1.38169e+06 	0.0352254 	633.67 	1.5259e-12 	-1.5259e-12
0.0704916 	1.38238e+06 	0.0366653 	642.915 	1.40353e-12 	-1.40353e-12
0.0714915 	1.38311e+06 	0.0381837 	652.17 	1.06273e-12 	-1.06273e-12
0.0724913 	1.38387e+06 	0.0397852 	661.435 	7.00226e-13 	-7.00226e-13
0.0734911 	1.38468e+06 	0.0414747 	670.71 	5.70512e-13 	-5.70512e-13
0.0744909 	1.38553e+06 	0.0432578 	679.996 	6.83869e-13 	-6.83869e-13
0.0754907 	1.38643e+06 	0.0451399 	689.294 	1.05829e-12 	-1.05829e-12
0.0764906 	1.38737e+06 	0.0471273 	698.604 	8.12225e-13 	-8.12225e-13
0.0774904 	1.38836e+06 	0.0492264 	707.927 	7.40924e-13 	-7.40924e-13
0.0784902 	1.38941e+06 	0.0514441 	717.264 	5.88556e-13 	-5.87718e-13
0.07949 	1.39052e+06 	0.0537876 	726.616 	3.19054e-13 	-3.1759e-13
0.0804898 	1.39169e+06 	0.0562649 	735.983 	2.02881e-13 	-2.00934e-13
0.0814897 	1.39293e+06 	0.0588843 	745.366 	2.54038e-13 	-2.51839e-13
0.0824895 	1.39424e+06 	0.0616547 	754.767 	4.87312e-13 	-4.85738e-13
0.0834893 	1.39562e+06 	0.0645855 	764.186 	4.35588e-13 	-4.35188e-13
0.0844891 	1.39708e+06 	0.067687 	773.626 	3.69416e-13 	-3.6893e-13
0.085489 	1.39863e+06 	0.0709698 	783.086 	-1.00683e-14 	1.03395e-14
0.0864888 	1.40027e+06 	0.0744455 	792.568 	-1.78891e-13 	1.78673e-13
0.0874886 	1.40201e+06 	0.0781264 	802.074 	-3.7165e-13 	3.71447e-13
0.0884884 	1.40385e+06 	0.0820256 	811.605 	-3.49259e-13 	3.48593e-13
0.0894883 	1.4058e+06 	0.0861571 	821.163 	-3.49389e-13 	3.49598e-13
0.0904881 	1.40787e+06 	0.0905358 	830.749 	-4.4645e-13 	4.46367e-13
0.0914879 	1.41007e+06 	0.0951778 	840.365 	-3.43185e-13 	3.42545e-13
0.0924877 	1.4124e+06 	0.1001 	850.014 	-3.41708e-13 	3.41757e-13
0.0934876 	1.41488e+06 	0.105321 	859.698 	-4.23719e-13 	4.24154e-13
0.0944874 	1.41751e+06 	0.110859 	869.418 	-3.37898e-13 	3.38077e-13
0.0954872 	1.42031e+06 	0.116737 	879.177 	-3.34556e-13 	3.34531e-13
0.0964871 	1.42329e+06 	0.122975 	888.977 	-4.06012e-13 	4.05562e-13
0.0974869 	1.42646e+06 	0.129599 	898.822 	-3.32772e-13 	3.32596e-13
0.0984867 	1.42984e+06 	0.136633 	908.715 	-3.29954e-13 	3.29876e-13
0.0994866 	1.43343e+06 	0.144105 	918.658 	-1.74107e-13 	1.74222e-13
0.100486 	1.43726e+06 	0.152044 	928.655 	-1.22462e-13 	1.22469e-13
0.101486 	1.44135e+06 	0.160481 	938.709 	-2.34989e-14 	2.93684e-14
0.102486 	1.4457e+06 	0.169451 	948.826 	0 	0
0.103486 	1.45035e+06 	0.17899 	959.007 	0 	2.28621e-14
0.104486 	1.45532e+06 	0.189137 	969.26 	0 	-2.07994e-14
0.105486 	1.46062e+06 	0.199933 	979.587 	6.22884e-14 	-8.03213e-14
0.106485 	1.46628e+06 	0.211425 	989.994 	3.23392e-14 	-4.67249e-14
0.107485 	1.47234e+06 	0.22366 	1000.49 	1.18247e-13 	-1.27223e-13
0.108485 	1.47882e+06 	0.236693 	1011.07 	1.49258e-13 	-1.49354e-13
0.109485 	1.48575e+06 	0.25058 	1021.75 	9.79309e-14 	-9.46215e-14
0.110485 	1.49318e+06 	0.265383 	1032.54 	1.25288e-13 	-1.22019e-13
0.111485 	1.50113e+06 	0.281169 	1043.44 	3.03601e-13 	-3.00523e-13
0.112484 	1.50966e+06 	0.298011 	1054.46 	3.40257e-13 	-3.37139e-13
0.113484 	1.51881e+06 	0.31599 	1065.61 	4.12663e-13 	-4.11646e-13
0.114484 	1.52863e+06 	0.335191 	1076.89 	5.72517e-13 	-5.71641e-13
0.115484 	1.53918e+06 	0.35571 	1088.32 	6.7016e-13 	-6.69357e-13
0.116484 	1.55052e+06 	0.377651 	1099.91 	6.6362e-13 	-6.62556e-13
0.117484 	1.56271e+06 	0.401128 	1111.67 	6.44461e-13 	-6.43233e-13
0.118483 	1.57583e+06 	0.426266 	1123.61 	5.88408e-13 	-5.86585e-13
0.119483 	1.58996e+06 	0.453205 	1135.74 	4.39117e-13 	-4.37457e-13
0.120483 	1.60519e+06 	0.482097 	1148.07 	3.95264e-13 	-3.93779e-13
0.121483 	1.62162e+06 	0.513112 	1160.63 	4.36788e-13 	-4.35416e-13
0.122483 	1.63937e+06 	0.546439 	1173.42 	3.63675e-13 	-3.62417e-13
0.123483 	1.65854e+06 	0.582287 	1186.47 	2.99677e-13 	-2.98509e-13
0.124482 	1.67929e+06 	0.620893 	1199.78 	2.43522e-13 	-2.4247e-13
0.125482 	1.70175e+06 	0.66252 	1213.39 	1.94011e-13 	-1.93092e-13
0.126482 	1.72611e+06 	0.707463 	1227.31 	1.4841e-13 	-1.47658e-13
0.127482 	1.75255e+06 	0.756056 	1241.55 	9.60595e-14 	-9.56346e-14
0.128482 	1.78128e+06 	0.808678 	1256.16 	4.64638e-14 	-4.60518e-14
0.129482 	1.81255e+06 	0.865756 	1271.14 	8.3964e-15 	-8.09107e-15
0.130481 	1.84663e+06 	0.927778 	1286.53 	0 	0
0.131481 	1.88382e+06 	0.995301 	1302.35 	0 	0
0.132481 	1.92448e+06 	1.06896 	1318.63 	-1.52039e-15 	1.52039e-15
0.133481 	1.969e+06 	1.1495 	1335.41 	-9.26013e-15 	9.26013e-15
0.134481 	2.01783e+06 	1.23775 	1352.7 	-7.58286e-14 	7.58286e-14
0.135481 	2.07146e+06 	1.33469 	1370.54 	-1.27459e-13 	1.27459e-13
0.13648 	2.13046e+06 	1.44144 	1388.94 	-5.89132e-14 	5.89132e-14
0.13748 	2.19541e+06 	1.55927 	1407.91 	-3.76645e-14 	3.76645e-14
0.13848 	2.2667e+06 	1.68844 	1427.51 	-1.96376e-14 	1.96376e-14
0.13948 	2.3449e+06 	1.82944 	1447.71 	-4.97502e-15 	4.97502e-15
0.14048 	2.43071e+06 	1.98442 	1468.36 	-1.47188e-15 	1.47188e-15
0.14148 	2.52458e+06 	2.15535 	1489.32 	-1.46528e-15 	1.46528e-15
0.14248 	2.6266e+06 	2.344 	1510.32 	-3.1538e-14 	3.1538e-14
0.143479 	2.73621e+06 	2.55177 	1530.92 	-1.91934e-14 	1.91934e-14
0.144479 	2.85158e+06 	2.77918 	1550.39 	-9.13306e-15 	9.13306e-15
0.145479 	2.96866e+06 	3.02496 	1567.57 	-2.13993e-15 	2.13993e-15
0.146479 	3.0795e+06 	3.28439 	1580.57 	-8.14424e-16 	8.14424e-16
0.147479 	3.16975e+06 	3.54639 	1586.41 	0 	0
0.148479 	3.21498e+06 	3.78908 	1580.3 	0 	0
0.149478 	3.17654e+06 	3.97354 	1554.67 	1.04665e-14 	-1.04665e-14
0.150478 	2.99953e+06 	4.03779 	1497.39 	6.92557e-15 	-6.92557e-15
0.151478 	2.62106e+06 	3.8981 	1389.27 	-2.03209e-15 	2.03209e-15
0.152478 	2.00527e+06 	3.47539 	1201.36 	-3.79908e-17 	3.79908e-17
0.153478 	1.22265e+06 	2.76967 	899.83 	6.03316e-15 	-6.03316e-15
0.154478 	530694 	1.96423 	495.944 	-1.24708e-15 	1.24708e-15
0.155477 	181214 	1.39653 	142.401 	0 	0
0.156477 	106543 	1.19383 	15.3011 	-7.41306e-16 	7.49583e-16
0.157477 	100364 	1.16353 	0.909287 	-1.04902e-14 	1.05085e-14
0.158477 	100017 	1.16115 	0.0490905 	-1.13106e-14 	1.13362e-14
0.159477 	99998.6 	1.16101 	0.00262251 	-2.10177e-14 	2.10514e-14
0.160477 	99997.6 	1.161 	0.000139223 	-2.17858e-14 	2.18126e-14
0.161476 	99997.6 	1.161 	7.34625e-06 	-1.38224e-14 	1.38423e-14
0.162476 	99997.6 	1.161 	3.85311e-07 	-1.45296e-14 	1.45447e-14
0.163476 	99997.6 	1.161 	2.00833e-08 	-2.37355e-14 	2.37462e-14
0.164476 	99997.6 	1.161 	1.03409e-09 	-7.62231e-15 	7.62653e-15
0.165476 	99997.6 	1.161 	4.46053e-11 	0 	0
0.166476 	99997.6 	1.161 	-5.99289e-12 	0 	0
0.167476 	99997.6 	1.161 	-2.27791e-12 	4.02653e-15 	-4.02653e-15
0.168475 	99997.6 	1.161 	-6.00846e-12 	0 	0
0.169475 	99997.6 	1.161 	-3.23465e-12 	0 	0
0.170475 	99997.6 	1.161 	-1.85675e-14 	0 	0
0.171475 	99997.6 	1.161 	1.66095e-12 	-3.84317e-15 	3.81299e-15
0.172475 	99997.6 	1.161 	4.53863e-12 	0 	-5.89651e-17
0.173475 	99997.6 	1.161 	1.74374e-12 	0 	0
0.174474 	99997.6 	1.161 	-3.26012e-12 	-7.42408e-15 	7.42408e-15
0.175474 	99997.6 	1.161 	-8.63611e-12 	-7.38018e-15 	7.38018e-15
0.176474 	99997.6 	1.161 	-1.30705e-11 	-4.27187e-17 	4.27187e-17
0.177474 	99997.6 	1.161 	-8.05484e-12 	0 	0
0.178474 	99997.6 	1.161 	3.65812e-12 	-3.1506e-17 	3.1506e-17
0.179474 	99997.6 	1.161 	1.01288e-12 	6.99375e-15 	-6.99375e-15
0.180473 	99997.6 	1.161 	-6.90294e-12 	6.96264e-15 	-6.96264e-15
0.181473 	99997.6 	1.161 	-1.04753e-11 	3.18585e-17 	-3.18585e-17
0.182473 	99997.6 	1.161 	-8.29456e-12 	0 	0
0.183473 	99997.6 	1.161 	-3.71389e-12 	0 	0
0.184473 	99997.6 	1.161 	5.81579e-12 	0 	0
0.185473 	99997.6 	1.161 	1.35461e-11 	0 	0
0.186473 	99997.6 	1.161 	6.85577e-12 	0 	0
0.187472 	99997.6 	1.161 	-6.94363e-13 	0 	0
0.188472 	99997.6 	1.161 	-3.04749e-12 	0 	0
0.189472 	99997.6 	1.161 	7.95059e-14 	0 	0
0.190472 	99997.6 	1.161 	-2.35586e-12 	3.11485e-15 	-3.11485e-15
0.191472 	99997.6 	1.161 	-2.18184e-12 	0 	0
0.192472 	99997.6 	1.161 	1.18467e-13 	0 	0
0.193471 	99997.6 	1.161 	-4.11075e-13 	-2.02216e-15 	2.02216e-15
0.194471 	99997.6 	1.161 	2.61704e-12 	1.98236e-15 	-1.98236e-15
0.195471 	99997.6 	1.161 	6.35631e-12 	0 	0
0.196471 	99997.6 	1.161 	1.16318e-11 	-2.92562e-15 	2.92562e-15
0.197471 	99997.6 	1.161 	1.15728e-11 	0 	0
0.198471 	99997.6 	1.161 	1.09955e-11 	0 	0
0.199471 	99997.6 	1.161 	-1.74588e-12 	5.68441e-15 	-5.68009e-15
0.20047 	99997.6 	1.161 	-1.14679e-11 	5.66086e-15 	-5.65273e-15
0.20147 	99997.6 	1.161 	-5.9965e-13 	3.30793e-17 	-3.02454e-17
0.20247 	99997.6 	1.161 	1.26704e-12 	0 	0
0.20347 	99997.6 	1.161 	4.87465e-13 	-7.55771e-16 	7.55771e-16
0.20447 	99997.6 	1.161 	-7.18569e-13 	-6.93393e-15 	6.93393e-15
0.20547 	99997.6 	1.161 	-5.3387e-12 	-7.67151e-15 	7.67151e-15
0.206469 	99997.6 	1.161 	-8.27864e-12 	-3.07679e-15 	3.07679e-15
0.207469 	99997.6 	1.161 	-9.8027e-12 	-3.79928e-15 	3.79928e-15
0.208469 	99997.6 	1.161 	1.99458e-12 	7.10761e-16 	-7.10761e-16
0.209469 	99997.6 	1.161 	1.21695e-11 	0 	0
0.210469 	99997.6 	1.161 	1.18979e-11 	0 	0
0.211469 	99997.6 	1.161 	6.92104e-12 	-2.44609e-15 	2.44609e-15
0.212468 	99997.6 	1.161 	4.4293e-12 	-9.89643e-15 	9.89643e-15
0.213468 	99997.6 	1.161 	-1.78618e-13 	-1.22966e-14 	1.22966e-14
0.214468 	99997.6 	1.161 	-2.73307e-12 	-1.96084e-14 	1.96084e-14
0.215468 	99997.6 	1.161 	7.55298e-13 	-2.1961e-14 	2.1961e-14
0.216468 	99997.6 	1.161 	-6.18985e-12 	-9.75971e-15 	9.75971e-15
0.217468 	99997.6 	1.161 	-8.27825e-12 	-2.46853e-15 	2.46853e-15
0.218468 	99997.6 	1.161 	-1.09913e-12 	0 	0
0.219467 	99997.6 	1.161 	8.29173e-13 	0 	0
0.220467 	99997.6 	1.161 	4.62343e-12 	0 	0
0.221467 	99997.6 	1.161 	8.24464e-12 	0 	0
0.222467 	99997.6 	1.161 	8.77571e-12 	0 	0
0.223467 	99997.6 	1.161 	1.20109e-11 	2.08928e-15 	-2.08928e-15
0.224467 	99997.6 	1.161 	5.42756e-12 	8.66422e-15 	-8.66422e-15
0.225466 	99997.6 	1.161 	-6.55532e-12 	1.78616e-15 	-1.78616e-15
0.226466 	99997.6 	1.161 	-3.88462e-12 	-2.83699e-15 	2.83699e-15
0.227466 	99997.6 	1.161 	7.75725e-13 	-1.18036e-14 	1.18036e-14
0.228466 	99997.6 	1.161 	-2.27371e-13 	-7.64935e-15 	7.64935e-15
0.229466 	99997.6 	1.161 	-3.74272e-12 	-7.83973e-15 	7.83973e-15
0.230466 	99997.6 	1.161 	-1.02645e-11 	-1.22997e-14 	1.22997e-14
0.231466 	99997.6 	1.161 	-9.31843e-12 	-4.01512e-15 	4.01512e-15
0.232465 	99997.6 	1.161 	-7.04965e-12 	0 	0
0.233465 	99997.6 	1.161 	-1.01231e-11 	0 	0
0.234465 	99997.6 	1.161 	-7.54145e-13 	0 	0
0.235465 	99997.6 	1.161 	1.16067e-11 	0 	0
0.236465 	99997.6 	1.161 	1.27336e-11 	0 	0
0.237465 	99997.6 	1.161 	3.94297e-12 	0 	0
0.238464 	99997.6 	1.161 	-7.25121e-12 	0 	0
0.239464 	99997.6 	1.161 	-9.72637e-12 	-2.85142e-15 	2.85142e-15
0.240464 	99997.6 	1.161 	-6.8778e-12 	-9.60189e-15 	9.60189e-15
0.241464 	99997.6 	1.161 	-3.562e-12 	-4.62224e-15 	4.62224e-15
0.242464 	99997.6 	1.161 	-1.93881e-12 	8.69796e-16 	-8.69796e-16
0.243464 	99997.6 	1.161 	6.23564e-12 	1.77985e-14 	-1.77985e-14
0.244464 	99997.6 	1.161 	6.77887e-12 	2.31986e-14 	-2.31986e-14
0.245463 	99997.6 	1.161 	-2.1373e-12 	2.11547e-14 	-2.11547e-14
0.246463 	99997.6 	1.161 	-2.42688e-12 	7.92348e-15 	-7.92348e-15
0.247463 	99997.6 	1.161 	3.66448e-12 	5.91783e-15 	-5.91783e-15
0.248463 	99997.6 	1.161 	1.03342e-11 	7.602e-15 	-7.602e-15
0.249463 	99997.6 	1.161 	7.18241e-12 	-1.66384e-15 	1.66384e-15
0.250463 	99997.6 	1.161 	-3.72758e-12 	-5.45988e-18 	5.45988e-18
0.251462 	99997.6 	1.161 	-1.07483e-11 	0 	0
0.252462 	99997.6 	1.161 	-1.08005e-11 	0 	0
0.253462 	99997.6 	1.161 	-6.80707e-12 	0 	0
0.254462 	99997.6 	1.161 	3.15139e-13 	0 	0
0.255462 	99997.6 	1.161 	7.84559e-12 	0 	0
0.256462 	99997.6 	1.161 	1.92782e-12 	-1.70518e-15 	1.70518e-15
0.257462 	99997.6 	1.161 	-2.99189e-12 	-6.819e-15 	6.819e-15
0.258461 	99997.6 	1.161 	-4.35979e-12 	-1.70579e-15 	1.70579e-15
0.259461 	99997.6 	1.161 	-6.96994e-12 	0 	0
0.260461 	99997.6 	1.161 	1.90139e-12 	0 	0
0.261461 	99997.6 	1.161 	8.12157e-12 	0 	0
0.262461 	99997.6 	1.161 	3.95804e-12 	1.59264e-15 	-1.59264e-15
0.263461 	99997.6 	1.161 	-3.62331e-12 	6.44027e-15 	-6.44027e-15
0.26446 	99997.6 	1.161 	-1.6412e-12 	1.44932e-14 	-1.44932e-14
0.26546 	99997.6 	1.161 	5.94009e-12 	1.2831e-14 	-1.2831e-14
0.26646 	99997.6 	1.161 	-4.65165e-13 	1.43725e-14 	-1.43725e-14
0.26746 	99997.6 	1.161 	-1.05884e-11 	6.39223e-15 	-6.39223e-15
0.26846 	99997.6 	1.161 	-6.58993e-12 	1.61693e-15 	-1.61693e-15
0.26946 	99997.6 	1.161 	-4.85825e-13 	0 	0
0.27046 	99997.6 	1.161 	-2.39011e-12 	0 	0
0.271459 	99997.6 	1.161 	-2.50574e-12 	0 	0
0.272459 	99997.6 	1.161 	-9.58346e-13 	0 	0
0.273459 	99997.6 	1.161 	-9.21392e-14 	0 	0
0.274459 	99997.6 	1.161 	5.53489e-12 	-1.48964e-15 	1.48964e-15
0.275459 	99997.6 	1.161 	6.08511e-12 	-5.95683e-15 	5.95683e-15
0.276459 	99997.6 	1.161 	1.12518e-11 	-1.48984e-15 	1.48984e-15
0.277458 	99997.6 	1.161 	2.22928e-11 	0 	0
0.278458 	99997.6 	1.161 	1.44941e-11 	0 	0
0.279458 	99997.6 	1.161 	-5.21121e-12 	0 	0
0.280458 	99997.6 	1.161 	-4.37121e-12 	0 	0
0.281458 	99997.6 	1.161 	4.74066e-12 	9.41209e-16 	-9.41209e-16
0.282458 	99997.6 	1.161 	2.33307e-12 	4.71683e-15 	-4.71683e-15
0.283457 	99997.6 	1.161 	-5.96087e-12 	0 	0
0.284457 	99997.6 	1.161 	-8.13724e-12 	-4.6581e-15 	4.6581e-15
0.285457 	99997.6 	1.161 	-5.12337e-12 	-9.34518e-16 	9.34518e-16
0.286457 	99997.6 	1.161 	-3.77895e-12 	0 	0
0.287457 	99997.6 	1.161 	-1.44302e-12 	0 	0
0.288457 	99997.6 	1.161 	-7.85536e-13 	-2.71604e-15 	2.71604e-15
0.289457 	99997.6 	1.161 	2.2984e-12 	0 	0
0.290456 	99997.6 	1.161 	3.92711e-12 	0 	0
0.291456 	99997.6 	1.161 	1.76878e-12 	1.78038e-15 	-1.78038e-15
0.292456 	99997.6 	1.161 	-3.33415e-12 	-1.75548e-15 	1.75548e-15
0.293456 	99997.6 	1.161 	-6.35043e-12 	0 	0
0.294456 	99997.6 	1.161 	1.89457e-12 	0 	0
0.295456 	99997.6 	1.161 	5.84045e-12 	1.72961e-15 	-1.72961e-15
0.296455 	99997.6 	1.161 	5.09556e-12 	-1.70947e-15 	1.70947e-15
0.297455 	99997.6 	1.161 	7.67565e-12 	0 	0
0.298455 	99997.6 	1.161 	8.97205e-13 	0 	0
0.299455 	99997.6 	1.161 	-6.58114e-12 	0 	0
0.300455 	99997.6 	1.161 	-2.43434e-12 	-2.50271e-15 	2.50271e-15
0.301455 	99997.6 	1.161 	5.08403e-12 	8.04369e-19 	-8.04369e-19
0.302455 	99997.6 	1.161 	6.9559e-12 	-2.46922e-15 	2.46922e-15
0.303454 	99997.6 	1.161 	3.60022e-12 	0 	0
0.304454 	99997.6 	1.161 	-4.68799e-12 	2.43837e-15 	-2.43837e-15
0.305454 	99997.6 	1.161 	-8.44361e-12 	0 	0
0.306454 	99997.6 	1.161 	-8.55675e-12 	0 	0
0.307454 	99997.6 	1.161 	-4.80432e-12 	0 	0
0.308454 	99997.6 	1.161 	3.35588e-12 	-4.75054e-15 	4.75054e-15
0.309453 	99997.6 	1.161 	2.08774e-12 	-4.73538e-15 	4.73538e-15
0.310453 	99997.6 	1.161 	-1.73029e-12 	-1.60424e-17 	1.60424e-17
0.311453 	99997.6 	1.161 	-2.82907e-12 	0 	0
0.312453 	99997.6 	1.161 	-7.73698e-12 	0 	0
0.313453 	99997.6 	1.161 	-1.48753e-11 	0 	0
0.314453 	99997.6 	1.161 	-1.10312e-11 	2.28541e-15 	-2.28541e-15
0.315453 	99997.6 	1.161 	9.7021e-13 	0 	0
0.316452 	99997.6 	1.161 	6.81926e-12 	0 	0
0.317452 	99997.6 	1.161 	1.66112e-11 	-3.84066e-16 	3.84066e-16
0.318452 	99997.6 	1.161 	2.01077e-11 	-5.23578e-15 	5.23578e-15
0.319452 	99997.6 	1.161 	7.27118e-12 	-1.44989e-14 	1.44989e-14
0.320452 	99997.6 	1.161 	-6.87127e-12 	-1.92886e-14 	1.92886e-14
0.321452 	99997.6 	1.161 	-8.58305e-12 	-1.96601e-14 	1.96601e-14
0.322451 	99997.6 	1.161 	1.45335e-12 	-1.5671e-14 	1.5671e-14
0.323451 	99997.6 	1.161 	6.83524e-12 	-1.60377e-14 	1.60377e-14
0.324451 	99997.6 	1.161 	5.03677e-12 	-1.20953e-14 	1.20953e-14
0.325451 	99997.6 	1.161 	5.06318e-12 	-3.89607e-15 	3.89607e-15
0.326451 	99997.6 	1.161 	3.09959e-12 	0 	0
0.327451 	99997.6 	1.161 	-2.58622e-12 	0 	0
0.328451 	99997.6 	1.161 	-8.88219e-12 	2.09498e-15 	-2.09498e-15
0.32945 	99997.6 	1.161 	-1.05106e-11 	0 	0
0.33045 	99997.6 	1.161 	-4.85434e-13 	0 	0
0.33145 	99997.6 	1.161 	8.45568e-12 	0 	0
0.33245 	99997.6 	1.161 	1.18624e-11 	0 	0
0.33345 	99997.6 	1.161 	4.66796e-12 	-4.06401e-15 	4.06401e-15
0.33445 	99997.6 	1.161 	-4.29556e-12 	-4.05238e-15 	4.05238e-15
0.33545 	99997.6 	1.161 	-6.12997e-12 	-1.27789e-17 	1.27789e-17
0.336449 	99997.6 	1.161 	-3.40561e-12 	0 	0
0.337449 	99997.6 	1.161 	-5.15654e-12 	0 	0
0.338449 	99997.6 	1.161 	-7.87077e-12 	0 	0
0.339449 	99997.6 	1.161 	-4.94792e-12 	0 	0
0.340449 	99997.6 	1.161 	-5.8246e-12 	0 	0
0.341449 	99997.6 	1.161 	1.93059e-12 	-1.93833e-15 	1.93833e-15
0.342448 	99997.6 	1.161 	4.05384e-12 	0 	0
0.343448 	99997.6 	1.161 	-5.37178e-12 	0 	0
0.344448 	99997.6 	1.161 	-8.79936e-12 	1.90507e-15 	-1.90507e-15
0.345448 	99997.6 	1.161 	-2.40973e-12 	7.08952e-19 	-7.08952e-19
0.346448 	99997.6 	1.161 	6.18219e-12 	1.88337e-15 	-1.88337e-15
0.347448 	99997.6 	1.161 	4.34009e-12 	0 	0
0.348448 	99997.6 	1.161 	-2.96283e-12 	-3.09533e-15 	3.09533e-15
0.349447 	99997.6 	1.161 	-2.40865e-12 	-2.46129e-15 	2.46129e-15
0.350447 	99997.6 	1.161 	2.77763e-12 	-5.52107e-15 	5.52107e-15
0.351447 	99997.6 	1.161 	-3.43265e-12 	-4.89299e-15 	4.89299e-15
0.352447 	99997.6 	1.161 	-4.95358e-13 	-6.19954e-16 	6.19954e-16
0.353447 	99997.6 	1.161 	1.02328e-11 	0 	0
0.354447 	99997.6 	1.161 	7.19052e-12 	0 	0
0.355446 	99997.6 	1.161 	3.95669e-12 	1.78775e-15 	-1.78775e-15
0.356446 	99997.6 	1.161 	5.54323e-12 	0 	0
0.357446 	99997.6 	1.161 	3.44254e-13 	-4.24125e-15 	4.24125e-15
0.358446 	99997.6 	1.161 	-6.7902e-12 	-4.93061e-15 	4.93061e-15
0.359446 	99997.6 	1.161 	-6.75961e-12 	-2.10969e-15 	2.10969e-15
0.360446 	99997.6 	1.161 	-6.38244e-12 	-2.79036e-15 	2.79036e-15
0.361446 	99997.6 	1.161 	-7.60438e-12 	0 	0
0.362445 	99997.6 	1.161 	-2.37449e-12 	0 	0
0.363445 	99997.6 	1.161 	6.24602e-12 	-1.71147e-15 	1.71147e-15
0.364445 	99997.6 	1.161 	2.62176e-12 	-1.37557e-18 	1.37557e-18
0.365445 	99997.6 	1.161 	9.673e-13 	-1.69278e-15 	1.69278e-15
0.366445 	99997.6 	1.161 	3.32455e-12 	0 	0
0.367445 	99997.6 	1.161 	-1.93505e-13 	1.67399e-15 	-1.67399e-15
0.368444 	99997.6 	1.161 	-3.48787e-12 	0 	0
0.369444 	99997.6 	1.161 	-1.84212e-12 	0 	0
0.370444 	99997.6 	1.161 	-1.94248e-12 	-7.97605e-16 	7.97605e-16
0.371444 	99997.6 	1.161 	-3.58813e-12 	-4.87656e-15 	4.87656e-15
0.372444 	99997.6 	1.161 	3.36685e-12 	-5.66569e-15 	5.66569e-15
0.373444 	99997.6 	1.161 	7.01163e-12 	-9.6988e-15 	9.6988e-15
0.374444 	99997.6 	1.161 	1.97528e-12 	-1.04784e-14 	1.04784e-14
0.375443 	99997.6 	1.161 	-2.93617e-12 	-8.03778e-15 	8.03778e-15
0.376443 	99997.6 	1.161 	-6.33732e-12 	-2.4142e-15 	2.4142e-15
0.377443 	99997.6 	1.161 	-1.4856e-12 	0 	0
0.378443 	99997.6 	1.161 	-1.8884e-12 	0 	0
0.379443 	99997.6 	1.161 	-3.87028e-12 	1.56997e-15 	-1.56997e-15
0.380443 	99997.6 	1.161 	-3.93741e-12 	5.84293e-19 	-5.84293e-19
0.381442 	99997.6 	1.161 	-8.93041e-12 	1.55264e-15 	-1.55264e-15
0.382442 	99997.6 	1.161 	-4.65553e-12 	0 	0
0.383442 	99997.6 	1.161 	-2.40299e-12 	0 	0
0.384442 	99997.6 	1.161 	2.0779e-12 	-1.52898e-15 	1.52898e-15
0.385442 	99997.6 	1.161 	5.27002e-12 	0 	0
0.386442 	99997.6 	1.161 	3.37603e-12 	0 	0
0.387442 	99997.6 	1.161 	4.21772e-12 	0 	0
0.388441 	99997.6 	1.161 	5.60466e-12 	2.99642e-15 	-2.99642e-15
0.389441 	99997.6 	1.161 	-4.12007e-13 	2.98888e-15 	-2.98888e-15
0.390441 	99997.6 	1.161 	-4.40221e-12 	8.73602e-18 	-8.73602e-18
0.391441 	99997.6 	1.161 	3.92753e-12 	0 	0
0.392441 	99997.6 	1.161 	-5.08515e-13 	0 	0
0.393441 	99997.6 	1.161 	-7.65419e-12 	1.46003e-15 	-1.46003e-15
0.39444 	99997.6 	1.161 	-6.55817e-12 	0 	0
0.39544 	99997.6 	1.161 	-4.16674e-12 	0 	0
0.39644 	99997.6 	1.161 	2.11204e-12 	0 	0
0.39744 	99997.6 	1.161 	6.49894e-12 	0 	0
0.39844 	99997.6 	1.161 	4.39796e-12 	0 	0
0.39944 	99997.6 	1.161 	1.78085e-12 	0 	0
0.40044 	99997.6 	1.161 	-1.21025e-12 	0 	0
0.401439 	99997.6 	1.161 	1.51281e-12 	0 	0
0.402439 	99997.6 	1.161 	7.03984e-12 	5.95277e-16 	-5.95277e-16
0.403439 	99997.6 	1.161 	6.40167e-12 	3.972e-15 	-3.972e-15
0.404439 	99997.6 	1.161 	-1.75436e-13 	1.01006e-14 	-1.01006e-14
0.405439 	99997.6 	1.161 	1.54698e-12 	1.3441e-14 	-1.3441e-14
0.406439 	99997.6 	1.161 	3.62299e-12 	1.40235e-14 	-1.40235e-14
0.407438 	99997.6 	1.161 	-1.08082e-12 	6.41726e-15 	-6.41726e-15
0.408438 	99997.6 	1.161 	-2.11038e-12 	1.56116e-15 	-1.56116e-15
0.409438 	99997.6 	1.161 	5.69567e-13 	-5.69646e-16 	5.69646e-16
0.410438 	99997.6 	1.161 	2.14758e-12 	0 	0
0.411438 	99997.6 	1.161 	-3.57905e-12 	0 	0
0.412438 	99997.6 	1.161 	-5.21205e-12 	0 	0
0.413438 	99997.6 	1.161 	-6.0718e-12 	0 	0
0.414437 	99997.6 	1.161 	-3.23645e-13 	0 	0
0.415437 	99997.6 	1.161 	2.68394e-12 	0 	0
0.416437 	99997.6 	1.161 	-2.34652e-12 	0 	0
0.417437 	99997.6 	1.161 	-3.13593e-12 	0 	0
0.418437 	99997.6 	1.161 	-2.25057e-12 	-8.63012e-16 	8.63012e-16
0.419437 	99997.6 	1.161 	8.08349e-12 	8.53331e-16 	-8.53331e-16
0.420436 	99997.6 	1.161 	1.53265e-11 	0 	0
0.421436 	99997.6 	1.161 	1.18604e-11 	0 	0
0.422436 	99997.6 	1.161 	6.39161e-12 	-1.26732e-15 	1.26732e-15
0.423436 	99997.6 	1.161 	1.76862e-12 	-1.79693e-18 	1.79693e-18
0.424436 	99997.6 	1.161 	1.81372e-12 	-1.25616e-15 	1.25616e-15
0.425436 	99997.6 	1.161 	-5.03001e-13 	-1.53986e-18 	1.53986e-18
0.426436 	99997.6 	1.161 	-2.35598e-12 	-1.24349e-15 	1.24349e-15
0.427435 	99997.6 	1.161 	1.13835e-12 	0 	0
0.428435 	99997.6 	1.161 	3.16578e-12 	-8.21608e-16 	8.21608e-16
0.429435 	99997.6 	1.161 	7.32212e-12 	8.15051e-16 	-8.15051e-16
0.430435 	99997.6 	1.161 	3.47346e-12 	0 	0
0.431435 	99997.6 	1.161 	-1.49272e-11 	1.21374e-15 	-1.21374e-15
0.432435 	99997.6 	1.161 	-2.15738e-11 	4.27252e-20 	-4.27252e-20
0.433434 	99997.6 	1.161 	-1.32897e-11 	1.20337e-15 	-1.20337e-15
0.434434 	99997.6 	1.161 	-3.23483e-12 	0 	0
0.435434 	99997.6 	1.161 	5.30844e-12 	7.96079e-16 	-7.96079e-16
0.436434 	99997.6 	1.161 	1.03556e-11 	-7.89788e-16 	7.89788e-16
0.437434 	99997.6 	1.161 	2.78998e-12 	0 	0
0.438434 	99997.6 	1.161 	-1.52349e-12 	-9.22231e-16 	9.22231e-16
0.439434 	99997.6 	1.161 	6.15222e-12 	-4.1856e-15 	4.1856e-15
0.440433 	99997.6 	1.161 	7.72687e-13 	-9.7676e-15 	9.7676e-15
0.441433 	99997.6 	1.161 	-6.77007e-12 	-8.35142e-15 	8.35142e-15
0.442433 	99997.6 	1.161 	-1.06305e-12 	0 	0
0.443433 	99997.6 	1.161 	5.18142e-13 	8.27225e-15 	-8.27225e-15
0.444433 	99997.6 	1.161 	-3.95156e-12 	9.62687e-15 	-9.62687e-15
0.445433 	99997.6 	1.161 	-4.47667e-12 	4.1287e-15 	-4.1287e-15
0.446433 	99997.6 	1.161 	-4.50056e-12 	9.26006e-16 	-9.26006e-16
0.447432 	99997.6 	1.161 	3.01598e-12 	0 	0
0.448432 	99997.6 	1.161 	1.14335e-11 	9.53667e-16 	-9.53667e-16
0.449432 	99997.6 	1.161 	1.11156e-11 	4.14516e-15 	-4.14516e-15
0.450432 	99997.6 	1.161 	5.23396e-12 	6.24716e-16 	-6.24716e-16
0.451432 	99997.6 	1.161 	-9.53098e-13 	-6.57899e-16 	6.57899e-16
0.452432 	99997.6 	1.161 	1.0282e-12 	-4.11915e-15 	4.11915e-15
0.453431 	99997.6 	1.161 	8.49401e-12 	-9.56032e-16 	9.56032e-16
0.454431 	99997.6 	1.161 	1.00797e-11 	0 	0
0.455431 	99997.6 	1.161 	-1.22836e-12 	-6.62988e-16 	6.62988e-16
0.456431 	99997.6 	1.161 	-6.39125e-12 	-3.49656e-15 	3.49656e-15
0.457431 	99997.6 	1.161 	-4.47502e-12 	-8.48167e-15 	8.48167e-15
0.458431 	99997.6 	1.161 	-3.18988e-12 	-1.55994e-14 	1.55994e-14
0.459431 	99997.6 	1.161 	1.24499e-12 	-1.83785e-14 	1.83785e-14
0.46043 	99997.6 	1.161 	4.00735e-12 	-1.79951e-14 	1.79951e-14
0.46143 	99997.6 	1.161 	3.15176e-12 	-1.51479e-14 	1.51479e-14
0.46243 	99997.6 	1.161 	-1.52776e-12 	-8.17159e-15 	8.17159e-15
0.46343 	99997.6 	1.161 	-4.44079e-12 	-3.33331e-15 	3.33331e-15
0.46443 	99997.6 	1.161 	-1.36638e-12 	-6.15835e-16 	6.15835e-16
0.46543 	99997.6 	1.161 	-5.79506e-13 	0 	0
0.466429 	99997.6 	1.161 	2.0804e-13 	0 	0
0.467429 	99997.6 	1.161 	6.08595e-12 	0 	0
0.468429 	99997.6 	1.161 	-8.39412e-13 	0 	0
0.469429 	99997.6 	1.161 	-4.74615e-12 	0 	0
0.470429 	99997.6 	1.161 	-8.5972e-12 	0 	0
0.471429 	99997.6 	1.161 	-1.04915e-11 	6.73757e-16 	-6.73757e-16
0.472429 	99997.6 	1.161 	2.8769e-12 	3.28887e-15 	-3.28887e-15
0.473428 	99997.6 	1.161 	7.80013e-12 	-1.67987e-16 	1.67987e-16
0.474428 	99997.6 	1.161 	-1.15169e-12 	-5.62148e-15 	5.62148e-15
0.475428 	99997.6 	1.161 	-5.46969e-12 	-5.04212e-15 	5.04212e-15
0.476428 	99997.6 	1.161 	2.01968e-12 	-6.45959e-15 	6.45959e-15
0.477428 	99997.6 	1.161 	7.36705e-12 	-1.91042e-15 	1.91042e-15
0.478428 	99997.6 	1.161 	6.02436e-12 	6.41744e-16 	-6.41744e-16
0.479427 	99997.6 	1.161 	-2.82949e-12 	3.70574e-15 	-3.70574e-15
0.480427 	99997.6 	1.161 	-9.39503e-12 	8.70114e-16 	-8.70114e-16
0.481427 	99997.6 	1.161 	-9.86829e-12 	0 	0
0.482427 	99997.6 	1.161 	-6.49261e-12 	0 	0
0.483427 	99997.6 	1.161 	-1.13733e-11 	0 	0
0.484427 	99997.6 	1.161 	-1.14987e-11 	-5.57703e-16 	5.57703e-16
0.485427 	99997.6 	1.161 	3.95972e-12 	-3.03457e-15 	3.03457e-15
0.486426 	99997.6 	1.161 	8.11958e-12 	2.41408e-16 	-2.41408e-16
0.487426 	99997.6 	1.161 	9.33309e-12 	-2.24448e-15 	2.24448e-15
0.488426 	99997.6 	1.161 	3.99677e-12 	-6.61839e-15 	6.61839e-15
0.489426 	99997.6 	1.161 	-1.06064e-11 	-1.2865e-14 	1.2865e-14
0.490426 	99997.6 	1.161 	-1.28114e-11 	-1.40186e-14 	1.40186e-14
0.491426 	99997.6 	1.161 	-6.82845e-12 	-1.25122e-14 	1.25122e-14
0.492425 	99997.6 	1.161 	4.81643e-12 	-6.57417e-15 	6.57417e-15
0.493425 	99997.6 	1.161 	9.85838e-12 	-2.51965e-15 	2.51965e-15
0.494425 	99997.6 	1.161 	3.36008e-12 	-3.33136e-16 	3.33136e-16
0.495425 	99997.6 	1.161 	8.88439e-12 	0 	0
0.496425 	99997.6 	1.161 	8.21025e-12 	-9.13902e-16 	9.13902e-16
0.497425 	99997.6 	1.161 	4.33756e-12 	-3.6537e-15 	3.6537e-15