/*--------------------------------*- C++ -*----------------------------------*\
| =========                 |                                                 |
| \\      /  F ield         | OpenFOAM: The Open Source CFD Toolbox           |
|  \\    /   O peration     | Version:  2312                                  |
|   \\  /    A nd           | Website:  www.openfoam.com                      |
|    \\/     M anipulation  |                                                 |
\*---------------------------------------------------------------------------*/
FoamFile
{
    version     2.0;
    format      ascii;
    arch        "LSB;label=32;scalar=64";
    class       volScalarField;
    location    "0.035";
    object      p;
}
// * * * * * * * * * * * * * * * * * * * * * * * * * * * * * * * * * * * * * //

dimensions      [1 -1 -2 0 0 0 0];

internalField   nonuniform List<scalar> 
100
(
42744.9
42556.5
42059.6
41860.7
41283.9
41177
40527.1
40471.4
39814.7
39730.9
39145.3
38973.9
38491.6
38231.1
37829.9
37516.2
37157.6
36824.9
36483.5
36148.7
35814.5
35483.2
35154
34827.4
34503.3
34181.9
33863.4
33547.7
33235.2
32925.8
32620.2
32317.5
32019.9
31723.7
31436.5
31145.3
30873.5
30582
30335.6
30033.3
29828.8
29499.2
29358.2
28983.9
28924.4
28499.2
28522.4
28063.7
28144.8
27696.6
27788.7
27411
27459.8
27211.8
27166.8
27101.4
26911.2
27084.4
26682.9
27163.5
26468.6
27326.9
26268.8
27535
26112.1
27721.7
26047.9
27817.8
26117.7
27785.9
26321
27647.5
26603.2
27476.3
26882.8
27355.3
27103.8
27332.5
27273
27419.1
27463.1
27647.9
27830.7
28214.1
28761.2
29667.2
30889.6
32425
34010.1
35482
36627.2
37470.2
38008.3
38363.3
38561.1
38700.6
38775.1
38844
38877.4
38921.5
)
;

boundaryField
{
    sides
    {
        type            zeroGradient;
    }
    empty
    {
        type            empty;
    }
}


// ************************************************************************* //
