/*--------------------------------*- C++ -*----------------------------------*\
| =========                 |                                                 |
| \\      /  F ield         | OpenFOAM: The Open Source CFD Toolbox           |
|  \\    /   O peration     | Version:  2312                                  |
|   \\  /    A nd           | Website:  www.openfoam.com                      |
|    \\/     M anipulation  |                                                 |
\*---------------------------------------------------------------------------*/
FoamFile
{
    version     2.0;
    format      ascii;
    arch        "LSB;label=32;scalar=64";
    class       volScalarField;
    location    "0.035";
    object      thermo:e;
}
// * * * * * * * * * * * * * * * * * * * * * * * * * * * * * * * * * * * * * //

dimensions      [0 2 -2 0 0 0 0];

internalField   nonuniform List<scalar> 
100
(
180807
180769
179522
179559
177884
178292
176261
176852
174782
175195
173435
173413
172084
171639
170618
169916
169024
168208
167342
166484
165615
164750
163890
163045
162219
161419
160650
159915
159217
158555
157931
157338
156784
156247
155761
155253
154846
154321
154033
153416
153325
152508
152721
151598
152197
150727
151697
149975
151151
149420
150519
149102
149809
149020
149048
149178
148231
149611
147310
150359
146254
151380
145140
152477
144207
153305
143783
153523
144105
152999
145132
151927
146511
150752
147775
149897
148624
149526
149087
149546
149417
149832
149938
150551
151166
152423
153992
156159
158339
160499
162108
163370
164141
164711
164972
165207
165303
165451
165476
165589
)
;

boundaryField
{
    sides
    {
        type            zeroGradient;
    }
    empty
    {
        type            empty;
    }
}


// ************************************************************************* //
