/*--------------------------------*- C++ -*----------------------------------*\
| =========                 |                                                 |
| \\      /  F ield         | OpenFOAM: The Open Source CFD Toolbox           |
|  \\    /   O peration     | Version:  2312                                  |
|   \\  /    A nd           | Website:  www.openfoam.com                      |
|    \\/     M anipulation  |                                                 |
\*---------------------------------------------------------------------------*/
FoamFile
{
    version     2.0;
    format      ascii;
    arch        "LSB;label=32;scalar=64";
    class       volVectorField;
    location    "0.035";
    object      U;
}
// * * * * * * * * * * * * * * * * * * * * * * * * * * * * * * * * * * * * * //

dimensions      [0 1 -1 0 0 0 0];

internalField   nonuniform List<vector> 
100
(
(145.102 0 0)
(147.398 0 0)
(149.814 0 0)
(152.431 0 0)
(154.789 0 0)
(157.375 0 0)
(159.781 0 0)
(162.262 0 0)
(164.779 0 0)
(167.139 0 0)
(169.739 0 0)
(172.051 0 0)
(174.646 0 0)
(176.994 0 0)
(179.53 0 0)
(181.935 0 0)
(184.419 0 0)
(186.856 0 0)
(189.312 0 0)
(191.754 0 0)
(194.194 0 0)
(196.626 0 0)
(199.052 0 0)
(201.47 0 0)
(203.881 0 0)
(206.285 0 0)
(208.681 0 0)
(211.071 0 0)
(213.454 0 0)
(215.831 0 0)
(218.201 0 0)
(220.563 0 0)
(222.92 0 0)
(225.263 0 0)
(227.604 0 0)
(229.917 0 0)
(232.242 0 0)
(234.507 0 0)
(236.816 0 0)
(239.01 0 0)
(241.301 0 0)
(243.4 0 0)
(245.66 0 0)
(247.652 0 0)
(249.841 0 0)
(251.735 0 0)
(253.784 0 0)
(255.603 0 0)
(257.431 0 0)
(259.186 0 0)
(260.73 0 0)
(262.403 0 0)
(263.634 0 0)
(265.185 0 0)
(266.088 0 0)
(267.5 0 0)
(268.056 0 0)
(269.36 0 0)
(269.549 0 0)
(270.801 0 0)
(270.651 0 0)
(271.867 0 0)
(271.507 0 0)
(272.598 0 0)
(272.27 0 0)
(273.046 0 0)
(273.03 0 0)
(273.308 0 0)
(273.784 0 0)
(273.525 0 0)
(274.451 0 0)
(273.831 0 0)
(274.942 0 0)
(274.279 0 0)
(275.239 0 0)
(274.786 0 0)
(275.376 0 0)
(275.148 0 0)
(275.313 0 0)
(275.066 0 0)
(274.724 0 0)
(273.92 0 0)
(272.487 0 0)
(269.881 0 0)
(265.59 0 0)
(259.076 0 0)
(250.493 0 0)
(240.751 0 0)
(231.299 0 0)
(223.364 0 0)
(217.504 0 0)
(213.613 0 0)
(211.298 0 0)
(210.075 0 0)
(209.53 0 0)
(209.375 0 0)
(209.454 0 0)
(209.668 0 0)
(209.946 0 0)
(210.186 0 0)
)
;

boundaryField
{
    sides
    {
        type            mywaveTransmissive;
        gamma           1.4;
        value           nonuniform List<vector> 2((210.307 0 0) (144.357 0 0));
    }
    empty
    {
        type            empty;
    }
}


// ************************************************************************* //
