/*--------------------------------*- C++ -*----------------------------------*\
| =========                 |                                                 |
| \\      /  F ield         | OpenFOAM: The Open Source CFD Toolbox           |
|  \\    /   O peration     | Version:  2312                                  |
|   \\  /    A nd           | Website:  www.openfoam.com                      |
|    \\/     M anipulation  |                                                 |
\*---------------------------------------------------------------------------*/
FoamFile
{
    version     2.0;
    format      ascii;
    arch        "LSB;label=32;scalar=64";
    class       volScalarField;
    location    "0.005";
    object      p;
}
// * * * * * * * * * * * * * * * * * * * * * * * * * * * * * * * * * * * * * //

dimensions      [1 -1 -2 0 0 0 0];

internalField   nonuniform List<scalar> 
100
(
410766
409549
407965
405959
403479
400485
396953
392871
388243
383088
377437
371328
364810
357930
350742
343295
335639
327821
319881
311861
303794
295712
287642
279609
271634
263735
255928
248228
240647
233195
225881
218714
211702
204850
198164
191652
185319
179171
173215
167458
161910
156581
151482
146629
142041
137737
133742
130085
126792
123893
121409
119350
117709
116461
115557
114939
114538
114294
114155
114082
114047
114036
114036
114044
114054
114067
114081
114095
114108
114122
114136
114149
114162
114174
114186
114198
114210
114221
114232
114242
114253
114264
114275
114286
114297
114309
114323
114339
114365
114410
114498
114668
114972
115458
116131
116920
117681
118265
118602
118734
)
;

boundaryField
{
    sides
    {
        type            zeroGradient;
    }
    empty
    {
        type            empty;
    }
}


// ************************************************************************* //
