/*--------------------------------*- C++ -*----------------------------------*\
| =========                 |                                                 |
| \\      /  F ield         | OpenFOAM: The Open Source CFD Toolbox           |
|  \\    /   O peration     | Version:  2312                                  |
|   \\  /    A nd           | Website:  www.openfoam.com                      |
|    \\/     M anipulation  |                                                 |
\*---------------------------------------------------------------------------*/
FoamFile
{
    version     2.0;
    format      ascii;
    arch        "LSB;label=32;scalar=64";
    class       volScalarField;
    location    "0.005";
    object      rho;
}
// * * * * * * * * * * * * * * * * * * * * * * * * * * * * * * * * * * * * * //

dimensions      [1 -3 0 0 0 0 0];

internalField   nonuniform List<scalar> 
100
(
1.15612
1.15409
1.15145
1.14809
1.14393
1.13889
1.13292
1.12599
1.11809
1.10925
1.09949
1.08887
1.07745
1.0653
1.0525
1.03913
1.02524
1.01093
0.996241
0.981248
0.966005
0.950561
0.934964
0.919256
0.903474
0.887652
0.871821
0.856008
0.840239
0.824537
0.808924
0.79342
0.778045
0.762818
0.747757
0.732883
0.718216
0.703779
0.689595
0.675694
0.662107
0.648873
0.636035
0.623646
0.61177
0.60048
0.589861
0.580009
0.571024
0.563004
0.556031
0.550155
0.545373
0.541623
0.538777
0.536664
0.53509
0.533862
0.532807
0.531771
0.530613
0.529184
0.527314
0.524785
0.52133
0.516626
0.510316
0.502044
0.49151
0.478534
0.463103
0.445411
0.425845
0.404951
0.383368
0.361755
0.340725
0.320793
0.302352
0.285662
0.270863
0.25799
0.246993
0.237765
0.230156
0.223992
0.219091
0.215268
0.212352
0.210189
0.208657
0.207667
0.207166
0.207113
0.207443
0.208023
0.208662
0.209172
0.20946
0.209561
)
;

boundaryField
{
    sides
    {
        type            zeroGradient;
    }
    empty
    {
        type            empty;
    }
}


// ************************************************************************* //
