/*--------------------------------*- C++ -*----------------------------------*\
| =========                 |                                                 |
| \\      /  F ield         | OpenFOAM: The Open Source CFD Toolbox           |
|  \\    /   O peration     | Version:  2312                                  |
|   \\  /    A nd           | Website:  www.openfoam.com                      |
|    \\/     M anipulation  |                                                 |
\*---------------------------------------------------------------------------*/
FoamFile
{
    version     2.0;
    format      ascii;
    arch        "LSB;label=32;scalar=64";
    class       volScalarField;
    location    "0.005";
    object      T;
}
// * * * * * * * * * * * * * * * * * * * * * * * * * * * * * * * * * * * * * //

dimensions      [0 0 0 1 0 0 0];

internalField   nonuniform List<scalar> 
100
(
299.126
298.764
298.292
297.693
296.951
296.053
294.988
293.751
292.341
290.76
289.013
287.109
285.058
282.871
280.561
278.139
275.619
273.011
270.326
267.575
264.767
261.91
259.013
256.081
253.123
250.143
247.146
244.139
241.124
238.107
235.091
232.08
229.078
226.088
223.115
220.162
217.234
214.336
211.473
208.651
205.878
203.162
200.514
197.946
195.473
193.114
190.889
188.823
186.94
185.268
183.83
182.642
181.711
181.028
180.573
180.313
180.214
180.243
180.38
180.615
180.955
181.425
182.07
182.959
184.189
185.886
188.207
191.331
195.456
200.78
207.495
215.762
225.701
237.372
250.762
265.771
282.203
299.767
318.081
336.696
355.125
372.88
389.519
404.676
418.097
429.646
439.31
447.176
453.418
458.264
461.985
464.877
467.238
469.333
471.318
473.195
474.818
476.01
476.709
477.012
)
;

boundaryField
{
    sides
    {
        type            zeroGradient;
    }
    empty
    {
        type            empty;
    }
}


// ************************************************************************* //
