/*--------------------------------*- C++ -*----------------------------------*\
| =========                 |                                                 |
| \\      /  F ield         | OpenFOAM: The Open Source CFD Toolbox           |
|  \\    /   O peration     | Version:  2312                                  |
|   \\  /    A nd           | Website:  www.openfoam.com                      |
|    \\/     M anipulation  |                                                 |
\*---------------------------------------------------------------------------*/
FoamFile
{
    version     2.0;
    format      ascii;
    arch        "LSB;label=32;scalar=64";
    class       volScalarField;
    location    "0.005";
    object      thermo:e;
}
// * * * * * * * * * * * * * * * * * * * * * * * * * * * * * * * * * * * * * //

dimensions      [0 2 -2 0 0 0 0];

internalField   nonuniform List<scalar> 
100
(
513898
513276
512466
511437
510162
508618
506789
504664
502242
499525
496524
493253
489729
485972
482003
477843
473513
469032
464420
459694
454869
449962
444984
439948
434865
429745
424597
419430
414251
409068
403886
398713
393556
388419
383312
378239
373209
368229
363310
358462
353698
349032
344482
340071
335823
331770
327948
324398
321163
318291
315820
313779
312179
311006
310224
309777
309607
309658
309893
310297
310881
311688
312796
314323
316436
319352
323340
328707
335793
344941
356476
370679
387754
407805
430810
456595
484825
514999
546462
578443
610104
640609
669193
695234
718290
738132
754734
768249
778972
787297
793690
798658
802716
806313
809725
812950
815737
817786
818986
819507
)
;

boundaryField
{
    sides
    {
        type            zeroGradient;
    }
    empty
    {
        type            empty;
    }
}


// ************************************************************************* //
