/*--------------------------------*- C++ -*----------------------------------*\
| =========                 |                                                 |
| \\      /  F ield         | OpenFOAM: The Open Source CFD Toolbox           |
|  \\    /   O peration     | Version:  2312                                  |
|   \\  /    A nd           | Website:  www.openfoam.com                      |
|    \\/     M anipulation  |                                                 |
\*---------------------------------------------------------------------------*/
FoamFile
{
    version     2.0;
    format      ascii;
    arch        "LSB;label=32;scalar=64";
    class       volVectorField;
    location    "0.005";
    object      U;
}
// * * * * * * * * * * * * * * * * * * * * * * * * * * * * * * * * * * * * * //

dimensions      [0 1 -1 0 0 0 0];

internalField   nonuniform List<vector> 
100
(
(3.28078 0 0)
(4.63994 0 0)
(6.41475 0 0)
(8.67287 0 0)
(11.4772 0 0)
(14.8811 0 0)
(18.9256 0 0)
(23.6371 0 0)
(29.0274 0 0)
(35.0941 0 0)
(41.8225 0 0)
(49.1878 0 0)
(57.1577 0 0)
(65.6946 0 0)
(74.7582 0 0)
(84.3068 0 0)
(94.2992 0 0)
(104.695 0 0)
(115.458 0 0)
(126.551 0 0)
(137.942 0 0)
(149.6 0 0)
(161.499 0 0)
(173.613 0 0)
(185.919 0 0)
(198.397 0 0)
(211.026 0 0)
(223.789 0 0)
(236.67 0 0)
(249.652 0 0)
(262.72 0 0)
(275.859 0 0)
(289.054 0 0)
(302.289 0 0)
(315.547 0 0)
(328.811 0 0)
(342.059 0 0)
(355.269 0 0)
(368.415 0 0)
(381.465 0 0)
(394.381 0 0)
(407.118 0 0)
(419.621 0 0)
(431.824 0 0)
(443.645 0 0)
(454.989 0 0)
(465.743 0 0)
(475.781 0 0)
(484.967 0 0)
(493.166 0 0)
(500.265 0 0)
(506.189 0 0)
(510.925 0 0)
(514.532 0 0)
(517.14 0 0)
(518.925 0 0)
(520.082 0 0)
(520.792 0 0)
(521.206 0 0)
(521.436 0 0)
(521.558 0 0)
(521.618 0 0)
(521.646 0 0)
(521.657 0 0)
(521.659 0 0)
(521.659 0 0)
(521.658 0 0)
(521.658 0 0)
(521.66 0 0)
(521.664 0 0)
(521.671 0 0)
(521.681 0 0)
(521.694 0 0)
(521.71 0 0)
(521.729 0 0)
(521.751 0 0)
(521.775 0 0)
(521.803 0 0)
(521.833 0 0)
(521.866 0 0)
(521.902 0 0)
(521.942 0 0)
(521.984 0 0)
(522.029 0 0)
(522.078 0 0)
(522.128 0 0)
(522.177 0 0)
(522.215 0 0)
(522.213 0 0)
(522.11 0 0)
(521.779 0 0)
(521.016 0 0)
(519.558 0 0)
(517.195 0 0)
(513.959 0 0)
(510.268 0 0)
(506.853 0 0)
(504.406 0 0)
(503.184 0 0)
(502.945 0 0)
)
;

boundaryField
{
    sides
    {
        type            zeroGradient;
    }
    empty
    {
        type            empty;
    }
}


// ************************************************************************* //
