/*--------------------------------*- C++ -*----------------------------------*\
| =========                 |                                                 |
| \\      /  F ield         | OpenFOAM: The Open Source CFD Toolbox           |
|  \\    /   O peration     | Version:  2312                                  |
|   \\  /    A nd           | Website:  www.openfoam.com                      |
|    \\/     M anipulation  |                                                 |
\*---------------------------------------------------------------------------*/
FoamFile
{
    version     2.0;
    format      ascii;
    arch        "LSB;label=32;scalar=64";
    class       volScalarField;
    location    "2e-05";
    object      p;
}
// * * * * * * * * * * * * * * * * * * * * * * * * * * * * * * * * * * * * * //

dimensions      [1 -1 -2 0 0 0 0];

internalField   nonuniform List<scalar> 
100
(
4.63368e+07
4.63368e+07
4.63368e+07
4.63368e+07
4.63368e+07
4.63368e+07
4.63368e+07
4.63368e+07
4.63368e+07
4.63368e+07
4.63368e+07
4.63368e+07
4.63368e+07
4.63368e+07
4.63368e+07
4.63368e+07
4.63368e+07
4.63368e+07
4.63368e+07
4.63368e+07
4.63368e+07
4.63368e+07
4.63368e+07
4.63368e+07
4.63368e+07
4.63368e+07
4.63368e+07
4.63368e+07
4.63368e+07
4.63368e+07
4.63368e+07
4.63368e+07
4.63368e+07
4.63368e+07
4.63368e+07
4.6337e+07
4.63395e+07
4.63791e+07
4.69815e+07
5.54342e+07
1.24794e+08
3.40267e+08
6.11351e+08
7.5141e+08
7.59905e+08
7.37125e+08
7.23087e+08
7.18521e+08
7.18332e+08
7.19951e+08
7.24275e+08
7.62836e+08
7.75015e+08
7.4537e+08
7.50051e+08
7.61088e+08
7.74678e+08
7.90379e+08
8.08189e+08
8.28107e+08
8.50037e+08
8.73744e+08
8.98799e+08
9.24508e+08
9.49813e+08
9.73149e+08
9.92291e+08
1.00427e+09
1.00565e+09
9.93634e+08
9.6758e+08
9.30269e+08
8.87749e+08
8.4723e+08
8.14166e+08
7.90599e+08
7.75615e+08
7.66944e+08
7.62301e+08
7.59972e+08
7.58871e+08
7.58377e+08
7.58167e+08
7.58082e+08
7.5805e+08
7.58038e+08
7.58034e+08
7.58033e+08
7.58032e+08
7.58032e+08
7.58032e+08
7.58032e+08
7.58032e+08
7.58032e+08
7.58032e+08
7.58032e+08
7.58032e+08
7.58032e+08
7.58032e+08
7.58032e+08
)
;

boundaryField
{
    sides
    {
        type            zeroGradient;
    }
    empty
    {
        type            empty;
    }
}


// ************************************************************************* //
