/*--------------------------------*- C++ -*----------------------------------*\
| =========                 |                                                 |
| \\      /  F ield         | OpenFOAM: The Open Source CFD Toolbox           |
|  \\    /   O peration     | Version:  2312                                  |
|   \\  /    A nd           | Website:  www.openfoam.com                      |
|    \\/     M anipulation  |                                                 |
\*---------------------------------------------------------------------------*/
FoamFile
{
    version     2.0;
    format      ascii;
    arch        "LSB;label=32;scalar=64";
    class       volScalarField;
    location    "2e-05";
    object      rho;
}
// * * * * * * * * * * * * * * * * * * * * * * * * * * * * * * * * * * * * * //

dimensions      [1 -3 0 0 0 0 0];

internalField   nonuniform List<scalar> 
100
(
1.16102
1.16102
1.16102
1.16102
1.16102
1.16102
1.16102
1.16102
1.16102
1.16102
1.16102
1.16102
1.16102
1.16102
1.16102
1.16102
1.16102
1.16102
1.16102
1.16102
1.16102
1.16102
1.16102
1.16102
1.16102
1.16102
1.16102
1.16102
1.16102
1.16102
1.16102
1.16102
1.16102
1.16102
1.16102
1.16102
1.16102
1.16102
1.16102
1.16102
1.16102
1.16102
1.16102
1.16102
1.16102
1.16105
1.16121
1.16187
1.16106
1.13333
0.142173
0.116605
0.116113
0.116102
0.116102
0.116102
0.116102
0.116102
0.116102
0.116102
0.116102
0.116102
0.116102
0.116102
0.116102
0.116102
0.116102
0.116102
0.116102
0.116102
0.116102
0.116102
0.116102
0.116102
0.116102
0.116102
0.116102
0.116102
0.116102
0.116102
0.116102
0.116102
0.116102
0.116102
0.116102
0.116102
0.116102
0.116102
0.116102
0.116102
0.116102
0.116102
0.116102
0.116102
0.116102
0.116102
0.116102
0.116102
0.116102
0.116102
)
;

boundaryField
{
    sides
    {
        type            zeroGradient;
    }
    empty
    {
        type            empty;
    }
}


// ************************************************************************* //
