/*--------------------------------*- C++ -*----------------------------------*\
| =========                 |                                                 |
| \\      /  F ield         | OpenFOAM: The Open Source CFD Toolbox           |
|  \\    /   O peration     | Version:  2312                                  |
|   \\  /    A nd           | Website:  www.openfoam.com                      |
|    \\/     M anipulation  |                                                 |
\*---------------------------------------------------------------------------*/
FoamFile
{
    version     2.0;
    format      ascii;
    arch        "LSB;label=32;scalar=64";
    class       volScalarField;
    location    "2e-05";
    object      thermo:e;
}
// * * * * * * * * * * * * * * * * * * * * * * * * * * * * * * * * * * * * * //

dimensions      [0 2 -2 0 0 0 0];

internalField   nonuniform List<scalar> 
100
(
5.95678e+07
5.95678e+07
5.95678e+07
5.95678e+07
5.95678e+07
5.95678e+07
5.95678e+07
5.95678e+07
5.95678e+07
5.95678e+07
5.95678e+07
5.95678e+07
5.95678e+07
5.95678e+07
5.95678e+07
5.95678e+07
5.95678e+07
5.95678e+07
5.95678e+07
5.95678e+07
5.95678e+07
5.95678e+07
5.95678e+07
5.95678e+07
5.95678e+07
5.95678e+07
5.95678e+07
5.95678e+07
5.95678e+07
5.95678e+07
5.95678e+07
5.95678e+07
5.95678e+07
5.95679e+07
5.95679e+07
5.95679e+07
5.95693e+07
5.95923e+07
6.00069e+07
6.71743e+07
1.24024e+08
2.63119e+08
4.37329e+08
6.35636e+08
8.88404e+08
1.24589e+09
1.75942e+09
2.47584e+09
3.43971e+09
4.69423e+09
6.28241e+09
8.3475e+09
1.12854e+10
1.51015e+10
1.93196e+10
2.35089e+10
2.7523e+10
3.12707e+10
3.46863e+10
3.77263e+10
4.03695e+10
4.26141e+10
4.44746e+10
4.59775e+10
4.71567e+10
4.80493e+10
4.86907e+10
4.91113e+10
4.93339e+10
4.93777e+10
4.92653e+10
4.903e+10
4.87228e+10
4.84061e+10
4.81344e+10
4.79349e+10
4.78062e+10
4.77313e+10
4.76912e+10
4.76711e+10
4.76616e+10
4.76573e+10
4.76555e+10
4.76548e+10
4.76545e+10
4.76544e+10
4.76544e+10
4.76544e+10
4.76544e+10
4.76544e+10
4.76544e+10
4.76544e+10
4.76544e+10
4.76544e+10
4.76544e+10
4.76544e+10
4.76544e+10
4.76544e+10
4.76544e+10
4.76544e+10
)
;

boundaryField
{
    sides
    {
        type            zeroGradient;
    }
    empty
    {
        type            empty;
    }
}


// ************************************************************************* //
