/*--------------------------------*- C++ -*----------------------------------*\
| =========                 |                                                 |
| \\      /  F ield         | OpenFOAM: The Open Source CFD Toolbox           |
|  \\    /   O peration     | Version:  2312                                  |
|   \\  /    A nd           | Website:  www.openfoam.com                      |
|    \\/     M anipulation  |                                                 |
\*---------------------------------------------------------------------------*/
FoamFile
{
    version     2.0;
    format      ascii;
    arch        "LSB;label=32;scalar=64";
    class       volVectorField;
    location    "2e-05";
    object      U;
}
// * * * * * * * * * * * * * * * * * * * * * * * * * * * * * * * * * * * * * //

dimensions      [0 1 -1 0 0 0 0];

internalField   nonuniform List<vector> 
100
(
(1.81375e-17 0 0)
(1.1985e-16 0 0)
(7.24893e-17 0 0)
(-9.49702e-17 0 0)
(-1.15507e-16 0 0)
(1.81375e-17 0 0)
(1.1985e-16 0 0)
(7.5892e-17 0 0)
(-1.23253e-16 0 0)
(-5.0027e-17 0 0)
(4.08819e-17 0 0)
(7.33493e-18 0 0)
(0 0 0)
(-6.94403e-18 0 0)
(-3.90896e-19 0 0)
(1.91851e-19 0 0)
(7.14308e-18 0 0)
(0 0 0)
(-6.94403e-18 0 0)
(-3.90896e-19 0 0)
(0 0 0)
(7.33493e-18 0 0)
(0 0 0)
(-6.94403e-18 0 0)
(-1.99045e-19 0 0)
(1.11197e-17 0 0)
(-4.42558e-17 0 0)
(-7.4305e-18 0 0)
(4.07656e-17 0 0)
(7.26313e-17 0 0)
(1.09457e-16 0 0)
(0 0 0)
(0 0 0)
(-7.26115e-17 0 0)
(-2.99487e-19 0 0)
(7.2911e-17 0 0)
(0 0 0)
(0 0 0)
(-7.26115e-17 0 0)
(-1.06232e-16 0 0)
(2.03749e-18 0 0)
(-2.55601e-17 0 0)
(-4.27119e-13 0 0)
(-3.64121e-09 0 0)
(-2.72303e-05 0 0)
(-0.0502346 0 0)
(-0.776123 0 0)
(-4.37437 0 0)
(-15.6838 0 0)
(-7.99261 0 0)
(34.4014 0 0)
(2.37361 0 0)
(0.0379629 0 0)
(0.000493371 0 0)
(4.35339e-06 0 0)
(2.94783e-08 0 0)
(1.52828e-10 0 0)
(5.43128e-13 0 0)
(-7.09899e-14 0 0)
(2.57655e-14 0 0)
(-4.00702e-14 0 0)
(-6.27252e-14 0 0)
(0 0 0)
(0 0 0)
(5.8592e-14 0 0)
(3.16699e-15 0 0)
(-6.1759e-14 0 0)
(0 0 0)
(0 0 0)
(7.45306e-14 0 0)
(6.27252e-14 0 0)
(-1.97042e-14 0 0)
(3.10353e-14 0 0)
(1.00386e-13 0 0)
(-2.09853e-14 0 0)
(-9.07316e-14 0 0)
(-5.34168e-14 0 0)
(0 0 0)
(1.66831e-13 0 0)
(-2.26829e-14 0 0)
(-9.07316e-14 0 0)
(-5.13819e-14 0 0)
(-2.03492e-15 0 0)
(1.66831e-13 0 0)
(-2.26829e-14 0 0)
(-9.07316e-14 0 0)
(-5.13819e-14 0 0)
(1.02764e-14 0 0)
(1.5452e-13 0 0)
(-2.814e-14 0 0)
(-1.49624e-13 0 0)
(-5.82401e-14 0 0)
(1.75009e-13 0 0)
(5.52891e-14 0 0)
(-1.17532e-13 0 0)
(-6.90728e-14 0 0)
(-4.07426e-14 0 0)
(1.72058e-13 0 0)
(5.52891e-14 0 0)
(-1.17532e-13 0 0)
)
;

boundaryField
{
    sides
    {
        type            zeroGradient;
    }
    empty
    {
        type            empty;
    }
}


// ************************************************************************* //
