/*--------------------------------*- C++ -*----------------------------------*\
| =========                 |                                                 |
| \\      /  F ield         | OpenFOAM: The Open Source CFD Toolbox           |
|  \\    /   O peration     | Version:  2312                                  |
|   \\  /    A nd           | Website:  www.openfoam.com                      |
|    \\/     M anipulation  |                                                 |
\*---------------------------------------------------------------------------*/
FoamFile
{
    version     2.0;
    format      ascii;
    arch        "LSB;label=32;scalar=64";
    class       volVectorField;
    location    "2e-05";
    object      U;
}
// * * * * * * * * * * * * * * * * * * * * * * * * * * * * * * * * * * * * * //

dimensions      [0 1 -1 0 0 0 0];

internalField   nonuniform List<vector> 
100
(
(0 0 0)
(0 0 0)
(-1.534e-13 0 0)
(0 0 0)
(1.534e-13 0 0)
(0 0 0)
(0 0 0)
(-1.534e-13 0 0)
(7.79327e-14 0 0)
(-1.56401e-12 0 0)
(-3.36258e-12 0 0)
(-3.60111e-13 0 0)
(-1.2707e-12 0 0)
(-2.64995e-12 0 0)
(1.66492e-12 0 0)
(8.80245e-13 0 0)
(8.30558e-13 0 0)
(-7.45261e-13 0 0)
(-2.63046e-12 0 0)
(1.66492e-12 0 0)
(8.80245e-13 0 0)
(8.50041e-13 0 0)
(-7.06993e-13 0 0)
(-2.59281e-12 0 0)
(1.55493e-12 0 0)
(4.69113e-13 0 0)
(8.16377e-13 0 0)
(-1.77476e-12 0 0)
(-1.58736e-11 0 0)
(-3.25543e-10 0 0)
(-7.15268e-09 0 0)
(-1.4783e-07 0 0)
(-2.91435e-06 0 0)
(-5.4868e-05 0 0)
(-0.000987665 0 0)
(-0.0170205 0 0)
(-0.281165 0 0)
(-4.45236 0 0)
(-66.2598 0 0)
(-769.106 0 0)
(-4381.52 0 0)
(-11059.7 0 0)
(-17102.1 0 0)
(-20472.5 0 0)
(-20995 0 0)
(-20229.1 0 0)
(-19430.9 0 0)
(-18833.9 0 0)
(-18347.3 0 0)
(-17890.6 0 0)
(-17305.9 0 0)
(-14171.2 0 0)
(-7197.22 0 0)
(-2103.29 0 0)
(-420.135 0 0)
(913.668 0 0)
(2345.69 0 0)
(3945.48 0 0)
(5721.73 0 0)
(7665.53 0 0)
(9755.41 0 0)
(11956.7 0 0)
(14219.7 0 0)
(16475.5 0 0)
(18631.2 0 0)
(20560 0 0)
(22092.1 0 0)
(23007.6 0 0)
(23052 0 0)
(22009.7 0 0)
(19800.7 0 0)
(16580.2 0 0)
(12777.3 0 0)
(8993.59 0 0)
(5774.26 0 0)
(3399.79 0 0)
(1853.22 0 0)
(944.615 0 0)
(453.811 0 0)
(206.562 0 0)
(89.3429 0 0)
(36.7721 0 0)
(14.4097 0 0)
(5.37635 0 0)
(1.90953 0 0)
(0.645407 0 0)
(0.207512 0 0)
(0.063442 0 0)
(0.0184349 0 0)
(0.00508896 0 0)
(0.00133391 0 0)
(0.000331821 0 0)
(7.82907e-05 0 0)
(1.75097e-05 0 0)
(3.70954e-06 0 0)
(7.43881e-07 0 0)
(1.41121e-07 0 0)
(2.52436e-08 0 0)
(4.23522e-09 0 0)
(7.26333e-10 0 0)
)
;

boundaryField
{
    sides
    {
        type            zeroGradient;
    }
    empty
    {
        type            empty;
    }
}


// ************************************************************************* //
