/*--------------------------------*- C++ -*----------------------------------*\
| =========                 |                                                 |
| \\      /  F ield         | OpenFOAM: The Open Source CFD Toolbox           |
|  \\    /   O peration     | Version:  2312                                  |
|   \\  /    A nd           | Website:  www.openfoam.com                      |
|    \\/     M anipulation  |                                                 |
\*---------------------------------------------------------------------------*/
FoamFile
{
    version     2.0;
    format      ascii;
    arch        "LSB;label=32;scalar=64";
    class       volScalarField;
    location    "0.063";
    object      rho;
}
// * * * * * * * * * * * * * * * * * * * * * * * * * * * * * * * * * * * * * //

dimensions      [1 -3 0 0 0 0 0];

internalField   nonuniform List<scalar> 
100
(
0.431437
0.431315
0.430493
0.429628
0.428633
0.427518
0.426487
0.425124
0.424154
0.422559
0.42171
0.419929
0.419205
0.417321
0.41666
0.414798
0.414081
0.412395
0.411482
0.410102
0.408892
0.407871
0.406357
0.405636
0.403916
0.403345
0.401567
0.400976
0.399267
0.398533
0.39695
0.396028
0.394561
0.393472
0.39208
0.390876
0.389524
0.388262
0.386943
0.38568
0.384413
0.383201
0.382022
0.380912
0.379862
0.378897
0.378015
0.377231
0.376543
0.37596
0.375481
0.375108
0.374839
0.374675
0.374613
0.374659
0.374823
0.375136
0.375656
0.376506
0.377913
0.380282
0.384243
0.390614
0.400087
0.412676
0.427304
0.442086
0.455213
0.465673
0.473379
0.47881
0.482614
0.485357
0.487453
0.489178
0.490701
0.492127
0.493514
0.494899
0.496296
0.497713
0.499147
0.500594
0.502043
0.503483
0.504901
0.506285
0.507622
0.508901
0.510114
0.511253
0.512316
0.5133
0.514207
0.515041
0.515805
0.516511
0.517157
0.517637
)
;

boundaryField
{
    sides
    {
        type            zeroGradient;
    }
    empty
    {
        type            empty;
    }
}


// ************************************************************************* //
