/*--------------------------------*- C++ -*----------------------------------*\
| =========                 |                                                 |
| \\      /  F ield         | OpenFOAM: The Open Source CFD Toolbox           |
|  \\    /   O peration     | Version:  2312                                  |
|   \\  /    A nd           | Website:  www.openfoam.com                      |
|    \\/     M anipulation  |                                                 |
\*---------------------------------------------------------------------------*/
FoamFile
{
    version     2.0;
    format      ascii;
    arch        "LSB;label=32;scalar=64";
    class       volScalarField;
    location    "0.063";
    object      T;
}
// * * * * * * * * * * * * * * * * * * * * * * * * * * * * * * * * * * * * * //

dimensions      [0 0 0 1 0 0 0];

internalField   nonuniform List<scalar> 
100
(
226.952
225.143
225.501
223.397
223.868
222.068
222.173
221.229
220.285
220.882
218.144
220.948
215.804
221.251
213.446
221.519
211.34
221.441
209.769
220.77
208.899
219.437
208.698
217.596
208.941
215.557
209.324
213.643
209.604
212.074
209.681
210.921
209.589
210.146
209.424
209.671
209.28
209.419
209.209
209.328
209.225
209.351
209.31
209.443
209.433
209.562
209.56
209.673
209.66
209.747
209.712
209.767
209.702
209.723
209.63
209.62
209.506
209.48
209.374
209.384
209.381
209.597
209.986
210.863
212.244
214.352
216.895
219.665
222.088
224.044
225.291
226.08
226.369
226.468
226.296
226.096
225.735
225.408
224.966
224.578
224.097
223.68
223.186
222.764
222.279
221.874
221.42
221.057
220.652
220.35
220.006
219.777
219.501
219.346
219.139
219.05
218.91
218.869
218.799
218.793
)
;

boundaryField
{
    sides
    {
        type            zeroGradient;
    }
    empty
    {
        type            empty;
    }
}


// ************************************************************************* //
