/*--------------------------------*- C++ -*----------------------------------*\
| =========                 |                                                 |
| \\      /  F ield         | OpenFOAM: The Open Source CFD Toolbox           |
|  \\    /   O peration     | Version:  2312                                  |
|   \\  /    A nd           | Website:  www.openfoam.com                      |
|    \\/     M anipulation  |                                                 |
\*---------------------------------------------------------------------------*/
FoamFile
{
    version     2.0;
    format      ascii;
    arch        "LSB;label=32;scalar=64";
    class       volScalarField;
    location    "0.063";
    object      thermo:e;
}
// * * * * * * * * * * * * * * * * * * * * * * * * * * * * * * * * * * * * * //

dimensions      [0 2 -2 0 0 0 0];

internalField   nonuniform List<scalar> 
100
(
163224
161923
162181
160667
161006
159711
159787
159108
158429
158858
156889
158906
155207
159124
153510
159317
151996
159260
150866
158778
150240
157819
150095
156495
150270
155028
150546
153652
150747
152524
150803
151694
150736
151137
150618
150795
150514
150614
150463
150549
150475
150565
150536
150631
150624
150717
150716
150797
150788
150850
150825
150864
150818
150833
150766
150758
150677
150658
150582
150589
150587
150742
151022
151653
152646
154162
155991
157983
159726
161133
162029
162596
162804
162876
162752
162608
162349
162113
161795
161516
161171
160871
160516
160212
159863
159572
159245
158984
158693
158476
158229
158064
157865
157754
157605
157541
157440
157410
157360
157356
)
;

boundaryField
{
    sides
    {
        type            zeroGradient;
    }
    empty
    {
        type            empty;
    }
}


// ************************************************************************* //
