/*--------------------------------*- C++ -*----------------------------------*\
| =========                 |                                                 |
| \\      /  F ield         | OpenFOAM: The Open Source CFD Toolbox           |
|  \\    /   O peration     | Version:  2312                                  |
|   \\  /    A nd           | Website:  www.openfoam.com                      |
|    \\/     M anipulation  |                                                 |
\*---------------------------------------------------------------------------*/
FoamFile
{
    version     2.0;
    format      ascii;
    arch        "LSB;label=32;scalar=64";
    class       volVectorField;
    location    "0.063";
    object      U;
}
// * * * * * * * * * * * * * * * * * * * * * * * * * * * * * * * * * * * * * //

dimensions      [0 1 -1 0 0 0 0];

internalField   nonuniform List<vector> 
100
(
(183.461 0 0)
(184.168 0 0)
(185.308 0 0)
(186.425 0 0)
(187.524 0 0)
(188.769 0 0)
(189.749 0 0)
(191.166 0 0)
(191.992 0 0)
(193.597 0 0)
(194.267 0 0)
(196.03 0 0)
(196.595 0 0)
(198.43 0 0)
(198.993 0 0)
(200.768 0 0)
(201.467 0 0)
(203.035 0 0)
(204.001 0 0)
(205.251 0 0)
(206.547 0 0)
(207.461 0 0)
(209.045 0 0)
(209.706 0 0)
(211.446 0 0)
(212 0 0)
(213.734 0 0)
(214.319 0 0)
(215.922 0 0)
(216.619 0 0)
(218.039 0 0)
(218.854 0 0)
(220.1 0 0)
(220.994 0 0)
(222.105 0 0)
(223.027 0 0)
(224.038 0 0)
(224.947 0 0)
(225.88 0 0)
(226.749 0 0)
(227.61 0 0)
(228.423 0 0)
(229.213 0 0)
(229.958 0 0)
(230.672 0 0)
(231.342 0 0)
(231.975 0 0)
(232.565 0 0)
(233.116 0 0)
(233.624 0 0)
(234.092 0 0)
(234.518 0 0)
(234.906 0 0)
(235.253 0 0)
(235.56 0 0)
(235.818 0 0)
(236.018 0 0)
(236.131 0 0)
(236.103 0 0)
(235.828 0 0)
(235.117 0 0)
(233.642 0 0)
(230.928 0 0)
(226.416 0 0)
(219.743 0 0)
(211.121 0 0)
(201.489 0 0)
(192.188 0 0)
(184.326 0 0)
(178.414 0 0)
(174.378 0 0)
(171.842 0 0)
(170.362 0 0)
(169.573 0 0)
(169.213 0 0)
(169.112 0 0)
(169.169 0 0)
(169.317 0 0)
(169.522 0 0)
(169.759 0 0)
(170.019 0 0)
(170.292 0 0)
(170.575 0 0)
(170.864 0 0)
(171.16 0 0)
(171.463 0 0)
(171.771 0 0)
(172.088 0 0)
(172.413 0 0)
(172.75 0 0)
(173.096 0 0)
(173.457 0 0)
(173.831 0 0)
(174.221 0 0)
(174.626 0 0)
(175.045 0 0)
(175.482 0 0)
(175.927 0 0)
(176.397 0 0)
(176.782 0 0)
)
;

boundaryField
{
    sides
    {
        type            mywaveTransmissive;
        gamma           1.4;
        value           nonuniform List<vector> 2((176.941 0 0) (182.738 0 0));
    }
    empty
    {
        type            empty;
    }
}


// ************************************************************************* //
