/*--------------------------------*- C++ -*----------------------------------*\
| =========                 |                                                 |
| \\      /  F ield         | OpenFOAM: The Open Source CFD Toolbox           |
|  \\    /   O peration     | Version:  2312                                  |
|   \\  /    A nd           | Website:  www.openfoam.com                      |
|    \\/     M anipulation  |                                                 |
\*---------------------------------------------------------------------------*/
FoamFile
{
    version     2.0;
    format      ascii;
    arch        "LSB;label=32;scalar=64";
    class       volScalarField;
    location    "0.065";
    object      p;
}
// * * * * * * * * * * * * * * * * * * * * * * * * * * * * * * * * * * * * * //

dimensions      [1 -1 -2 0 0 0 0];

internalField   nonuniform List<scalar> 
100
(
27922.4
27685.4
27660.1
27402.5
27292
27157
26885.9
26958.8
26446.5
26799.7
25991
26657.9
25548.3
26501.7
25153.2
26298.4
24834.4
26027.2
24602.2
25690
24443.2
25310.9
24326.2
24925.7
24216.4
24566
24089.8
24248.7
23938.6
23975.5
23767.9
23738.8
23588.4
23529.7
23410
23341.7
23239.9
23171.7
23082.5
23018.8
22940.5
22883.5
22815.6
22766.7
22709
22669
22621.4
22590.5
22552.8
22531.1
22503
22490.3
22471.9
22468.8
22462.3
22474
22490.2
22538.6
22619.3
22780.6
23055.8
23527.8
24244.9
25241.6
26433.3
27688.1
28822.3
29745.4
30408.7
30866.8
31152
31340.9
31449.2
31528.2
31570.7
31610.6
31631.1
31658.1
31672
31695.3
31707.9
31730.5
31743.4
31766.4
31779.9
31803.6
31817.3
31841.8
31855.2
31880.3
31893.4
31918.9
31932
31957
31971.5
31994.8
32012.8
32031.9
32056
32063
)
;

boundaryField
{
    sides
    {
        type            zeroGradient;
    }
    empty
    {
        type            empty;
    }
}


// ************************************************************************* //
