/*--------------------------------*- C++ -*----------------------------------*\
| =========                 |                                                 |
| \\      /  F ield         | OpenFOAM: The Open Source CFD Toolbox           |
|  \\    /   O peration     | Version:  2312                                  |
|   \\  /    A nd           | Website:  www.openfoam.com                      |
|    \\/     M anipulation  |                                                 |
\*---------------------------------------------------------------------------*/
FoamFile
{
    version     2.0;
    format      ascii;
    arch        "LSB;label=32;scalar=64";
    class       volScalarField;
    location    "0.065";
    object      rho;
}
// * * * * * * * * * * * * * * * * * * * * * * * * * * * * * * * * * * * * * //

dimensions      [1 -3 0 0 0 0 0];

internalField   nonuniform List<scalar> 
100
(
0.423839
0.423973
0.423596
0.42297
0.422504
0.421543
0.421043
0.419732
0.419219
0.41762
0.417085
0.415327
0.414712
0.412967
0.412174
0.410618
0.409552
0.408307
0.406933
0.406022
0.4044
0.40374
0.402007
0.401452
0.399764
0.399179
0.39764
0.396949
0.395592
0.394784
0.39358
0.392682
0.391578
0.390622
0.389568
0.388579
0.387543
0.386533
0.385501
0.384482
0.383456
0.382445
0.381441
0.380462
0.379508
0.378594
0.377722
0.376906
0.37615
0.375467
0.374858
0.374336
0.373905
0.373579
0.373374
0.373326
0.373499
0.374017
0.375105
0.377158
0.380786
0.386779
0.395809
0.407899
0.422023
0.436355
0.449119
0.459295
0.466769
0.47199
0.475589
0.47812
0.479994
0.481483
0.482755
0.483916
0.485027
0.486128
0.48724
0.488377
0.489547
0.490755
0.491998
0.493276
0.494582
0.495908
0.497246
0.498581
0.499904
0.5012
0.502459
0.503668
0.504818
0.505903
0.506915
0.507857
0.508715
0.509511
0.510215
0.510772
)
;

boundaryField
{
    sides
    {
        type            zeroGradient;
    }
    empty
    {
        type            empty;
    }
}


// ************************************************************************* //
