/*--------------------------------*- C++ -*----------------------------------*\
| =========                 |                                                 |
| \\      /  F ield         | OpenFOAM: The Open Source CFD Toolbox           |
|  \\    /   O peration     | Version:  2312                                  |
|   \\  /    A nd           | Website:  www.openfoam.com                      |
|    \\/     M anipulation  |                                                 |
\*---------------------------------------------------------------------------*/
FoamFile
{
    version     2.0;
    format      ascii;
    arch        "LSB;label=32;scalar=64";
    class       volScalarField;
    location    "0.065";
    object      T;
}
// * * * * * * * * * * * * * * * * * * * * * * * * * * * * * * * * * * * * * //

dimensions      [0 0 0 1 0 0 0];

internalField   nonuniform List<scalar> 
100
(
228.99
226.974
226.968
225.187
224.526
223.925
221.953
223.25
219.276
223.055
216.601
223.1
214.131
223.06
212.117
222.615
210.769
221.567
210.143
219.926
210.092
217.906
210.331
215.812
210.557
213.91
210.574
212.333
210.336
211.091
209.904
210.127
209.384
209.374
208.872
208.793
208.439
208.369
208.124
208.099
207.946
207.978
207.906
207.994
207.989
208.124
208.166
208.332
208.403
208.581
208.659
208.832
208.901
209.055
209.109
209.245
209.299
209.459
209.599
209.945
210.457
211.437
212.911
215.093
217.71
220.555
223.064
225.108
226.443
227.312
227.676
227.844
227.739
227.605
227.311
227.052
226.679
226.359
225.942
225.581
225.131
224.738
224.261
223.842
223.345
222.915
222.411
221.986
221.492
221.093
220.629
220.276
219.864
219.564
219.226
218.978
218.732
218.521
218.383
218.193
)
;

boundaryField
{
    sides
    {
        type            zeroGradient;
    }
    empty
    {
        type            empty;
    }
}


// ************************************************************************* //
