/*--------------------------------*- C++ -*----------------------------------*\
| =========                 |                                                 |
| \\      /  F ield         | OpenFOAM: The Open Source CFD Toolbox           |
|  \\    /   O peration     | Version:  2312                                  |
|   \\  /    A nd           | Website:  www.openfoam.com                      |
|    \\/     M anipulation  |                                                 |
\*---------------------------------------------------------------------------*/
FoamFile
{
    version     2.0;
    format      ascii;
    arch        "LSB;label=32;scalar=64";
    class       volScalarField;
    location    "0.065";
    object      thermo:e;
}
// * * * * * * * * * * * * * * * * * * * * * * * * * * * * * * * * * * * * * //

dimensions      [0 2 -2 0 0 0 0];

internalField   nonuniform List<scalar> 
100
(
164689
163240
163235
161955
161479
161047
159629
160561
157703
160421
155780
160454
154003
160425
152555
160105
151585
159351
151135
158171
151099
156718
151270
155212
151432
153844
151445
152710
151274
151817
150963
151123
150589
150582
150221
150164
149909
149859
149683
149665
149555
149578
149526
149590
149586
149683
149713
149832
149883
150011
150068
150192
150242
150353
150391
150489
150528
150643
150744
150993
151360
152066
153125
154695
156577
158623
160428
161898
162858
163483
163744
163865
163790
163693
163482
163296
163027
162797
162497
162238
161915
161631
161288
160987
160630
160320
159958
159652
159297
159010
158677
158422
158126
157911
157667
157489
157312
157160
157061
156924
)
;

boundaryField
{
    sides
    {
        type            zeroGradient;
    }
    empty
    {
        type            empty;
    }
}


// ************************************************************************* //
