/*--------------------------------*- C++ -*----------------------------------*\
| =========                 |                                                 |
| \\      /  F ield         | OpenFOAM: The Open Source CFD Toolbox           |
|  \\    /   O peration     | Version:  2312                                  |
|   \\  /    A nd           | Website:  www.openfoam.com                      |
|    \\/     M anipulation  |                                                 |
\*---------------------------------------------------------------------------*/
FoamFile
{
    version     2.0;
    format      ascii;
    arch        "LSB;label=32;scalar=64";
    class       volVectorField;
    location    "0.065";
    object      U;
}
// * * * * * * * * * * * * * * * * * * * * * * * * * * * * * * * * * * * * * //

dimensions      [0 1 -1 0 0 0 0];

internalField   nonuniform List<vector> 
100
(
(187.111 0 0)
(187.832 0 0)
(188.756 0 0)
(189.957 0 0)
(190.755 0 0)
(192.123 0 0)
(192.751 0 0)
(194.292 0 0)
(194.78 0 0)
(196.447 0 0)
(196.875 0 0)
(198.562 0 0)
(199.056 0 0)
(200.624 0 0)
(201.323 0 0)
(202.64 0 0)
(203.649 0 0)
(204.645 0 0)
(205.982 0 0)
(206.686 0 0)
(208.264 0 0)
(208.793 0 0)
(210.464 0 0)
(210.964 0 0)
(212.581 0 0)
(213.165 0 0)
(214.637 0 0)
(215.351 0 0)
(216.655 0 0)
(217.481 0 0)
(218.64 0 0)
(219.532 0 0)
(220.582 0 0)
(221.492 0 0)
(222.462 0 0)
(223.354 0 0)
(224.257 0 0)
(225.107 0 0)
(225.947 0 0)
(226.744 0 0)
(227.517 0 0)
(228.251 0 0)
(228.955 0 0)
(229.618 0 0)
(230.249 0 0)
(230.839 0 0)
(231.394 0 0)
(231.909 0 0)
(232.387 0 0)
(232.826 0 0)
(233.229 0 0)
(233.591 0 0)
(233.914 0 0)
(234.188 0 0)
(234.403 0 0)
(234.528 0 0)
(234.51 0 0)
(234.243 0 0)
(233.538 0 0)
(232.074 0 0)
(229.382 0 0)
(224.915 0 0)
(218.308 0 0)
(209.753 0 0)
(200.16 0 0)
(190.848 0 0)
(182.928 0 0)
(176.932 0 0)
(172.806 0 0)
(170.187 0 0)
(168.635 0 0)
(167.783 0 0)
(167.366 0 0)
(167.213 0 0)
(167.217 0 0)
(167.314 0 0)
(167.468 0 0)
(167.655 0 0)
(167.863 0 0)
(168.084 0 0)
(168.315 0 0)
(168.553 0 0)
(168.798 0 0)
(169.047 0 0)
(169.302 0 0)
(169.564 0 0)
(169.831 0 0)
(170.106 0 0)
(170.389 0 0)
(170.682 0 0)
(170.983 0 0)
(171.296 0 0)
(171.621 0 0)
(171.955 0 0)
(172.307 0 0)
(172.662 0 0)
(173.045 0 0)
(173.424 0 0)
(173.843 0 0)
(174.189 0 0)
)
;

boundaryField
{
    sides
    {
        type            mywaveTransmissive;
        gamma           1.4;
        value           nonuniform List<vector> 2((174.309 0 0) (186.341 0 0));
    }
    empty
    {
        type            empty;
    }
}


// ************************************************************************* //
