/*--------------------------------*- C++ -*----------------------------------*\
| =========                 |                                                 |
| \\      /  F ield         | OpenFOAM: The Open Source CFD Toolbox           |
|  \\    /   O peration     | Version:  2312                                  |
|   \\  /    A nd           | Website:  www.openfoam.com                      |
|    \\/     M anipulation  |                                                 |
\*---------------------------------------------------------------------------*/
FoamFile
{
    version     2.0;
    format      ascii;
    arch        "LSB;label=32;scalar=64";
    class       volScalarField;
    location    "0.013";
    object      p;
}
// * * * * * * * * * * * * * * * * * * * * * * * * * * * * * * * * * * * * * //

dimensions      [1 -1 -2 0 0 0 0];

internalField   nonuniform List<scalar> 
100
(
95848.6
95175.7
94282.4
93291.9
92182.5
90974.2
89675.9
88299.3
86855.8
85356.7
83812.3
82232.4
80625.6
78999.8
77361.8
75717.6
74072.3
72430.5
70796
69172.2
67561.9
65967.6
64391.2
62834.9
61298.9
59788.4
58293
56844.9
55366.8
54036.7
52490.2
51403.4
49659.8
48893.9
47013.6
46333
44676.1
43755.6
42463.3
41384.1
40268.5
39201.7
38167.2
37166.2
36200.5
35272.2
34385
33543.4
32751.6
32014.4
31337.4
30728.4
30195.8
29745.3
29378.9
29096
28892.5
28755.6
28665.5
28606.5
28573.9
28565.4
28569.6
28568
28552
28532.7
28529.8
28549.1
28573.9
28578.7
28555
28520.1
28502.3
28519.2
28563.4
28606.4
28616.9
28584.7
28526
28465.3
28422.6
28407.8
28421.4
28456.2
28503.9
28546.7
28608.3
28633.2
28783.4
28782.9
29189.3
29139.3
29836.4
29722
30340
30272.3
30489.2
30486.2
30509.2
30503.6
)
;

boundaryField
{
    sides
    {
        type            zeroGradient;
    }
    empty
    {
        type            empty;
    }
}


// ************************************************************************* //
