/*--------------------------------*- C++ -*----------------------------------*\
| =========                 |                                                 |
| \\      /  F ield         | OpenFOAM: The Open Source CFD Toolbox           |
|  \\    /   O peration     | Version:  2312                                  |
|   \\  /    A nd           | Website:  www.openfoam.com                      |
|    \\/     M anipulation  |                                                 |
\*---------------------------------------------------------------------------*/
FoamFile
{
    version     2.0;
    format      ascii;
    arch        "LSB;label=32;scalar=64";
    class       volScalarField;
    location    "0.013";
    object      rho;
}
// * * * * * * * * * * * * * * * * * * * * * * * * * * * * * * * * * * * * * //

dimensions      [1 -3 0 0 0 0 0];

internalField   nonuniform List<scalar> 
100
(
1.12152
1.11702
1.11003
1.10167
1.09221
1.08183
1.07064
1.05874
1.04621
1.03315
1.01963
1.00574
0.991538
0.977092
0.962458
0.947683
0.932812
0.917881
0.902925
0.887971
0.873044
0.858168
0.84336
0.828638
0.814016
0.79951
0.785125
0.770879
0.756786
0.742799
0.72912
0.715272
0.702201
0.688491
0.675745
0.66289
0.649754
0.637949
0.625189
0.613372
0.601524
0.590049
0.578782
0.567772
0.5571
0.546824
0.536953
0.527488
0.51848
0.510045
0.50232
0.495403
0.489337
0.484161
0.479926
0.476632
0.474182
0.472489
0.471538
0.471186
0.470971
0.470387
0.469494
0.469002
0.469495
0.470538
0.470849
0.469593
0.467493
0.466381
0.467522
0.470205
0.471974
0.470567
0.465995
0.460893
0.458821
0.462018
0.469848
0.47849
0.482331
0.47653
0.459357
0.432719
0.400781
0.368001
0.33775
0.312035
0.291404
0.276091
0.265037
0.258254
0.253878
0.25178
0.250789
0.249892
0.249821
0.249359
0.249117
0.248971
)
;

boundaryField
{
    sides
    {
        type            zeroGradient;
    }
    empty
    {
        type            empty;
    }
}


// ************************************************************************* //
