/*--------------------------------*- C++ -*----------------------------------*\
| =========                 |                                                 |
| \\      /  F ield         | OpenFOAM: The Open Source CFD Toolbox           |
|  \\    /   O peration     | Version:  2312                                  |
|   \\  /    A nd           | Website:  www.openfoam.com                      |
|    \\/     M anipulation  |                                                 |
\*---------------------------------------------------------------------------*/
FoamFile
{
    version     2.0;
    format      ascii;
    arch        "LSB;label=32;scalar=64";
    class       volScalarField;
    location    "0.013";
    object      T;
}
// * * * * * * * * * * * * * * * * * * * * * * * * * * * * * * * * * * * * * //

dimensions      [0 0 0 1 0 0 0];

internalField   nonuniform List<scalar> 
100
(
297.058
296.162
295.228
294.344
293.364
292.296
291.135
289.889
288.564
287.169
285.711
284.198
282.636
281.031
279.388
277.713
276.01
274.282
272.534
270.767
268.986
267.191
265.385
263.572
261.748
259.93
258.072
256.312
254.296
252.86
250.232
249.795
245.814
246.842
241.826
242.947
238.995
238.403
236.083
234.516
232.689
230.93
229.212
227.53
225.863
224.206
222.585
221.033
219.565
218.172
216.843
215.598
214.487
213.547
212.777
212.185
211.789
211.54
211.303
211.026
210.882
211.08
211.513
211.723
211.382
210.771
210.611
211.317
212.451
212.993
212.297
210.828
209.906
210.658
213.055
215.738
216.792
215.049
211.032
206.779
204.824
207.21
215.06
228.578
247.207
269.631
294.415
318.955
343.328
362.365
382.808
392.188
408.493
410.317
420.504
421.071
424.209
424.954
425.688
425.858
)
;

boundaryField
{
    sides
    {
        type            zeroGradient;
    }
    empty
    {
        type            empty;
    }
}


// ************************************************************************* //
