/*--------------------------------*- C++ -*----------------------------------*\
| =========                 |                                                 |
| \\      /  F ield         | OpenFOAM: The Open Source CFD Toolbox           |
|  \\    /   O peration     | Version:  2312                                  |
|   \\  /    A nd           | Website:  www.openfoam.com                      |
|    \\/     M anipulation  |                                                 |
\*---------------------------------------------------------------------------*/
FoamFile
{
    version     2.0;
    format      ascii;
    arch        "LSB;label=32;scalar=64";
    class       volScalarField;
    location    "0.013";
    object      thermo:e;
}
// * * * * * * * * * * * * * * * * * * * * * * * * * * * * * * * * * * * * * //

dimensions      [0 2 -2 0 0 0 0];

internalField   nonuniform List<scalar> 
100
(
213644
213000
212328
211692
210988
210219
209384
208488
207535
206532
205484
204395
203272
202117
200936
199731
198506
197264
196006
194736
193454
192164
190865
189561
188249
186942
185605
184339
182890
181857
179967
179653
176790
177529
173921
174728
171885
171459
169791
168664
167350
166085
164850
163639
162440
161249
160083
158967
157911
156910
155954
155058
154259
153583
153029
152603
152319
152140
151969
151770
151666
151809
152120
152271
152026
151587
151471
151979
152795
153185
152684
151627
150964
151506
153229
155159
155917
154663
151774
148715
147310
149025
154671
164393
177791
193919
211744
229393
246921
260613
275315
282061
293788
295100
302427
302834
305091
305627
306155
306277
)
;

boundaryField
{
    sides
    {
        type            zeroGradient;
    }
    empty
    {
        type            empty;
    }
}


// ************************************************************************* //
