0.000749886 	81565.8 	6.72209e-05 	0.0941966 	0 	0
0.0016069 	81565.8 	6.7225e-05 	0.153127 	0 	0
0.0025654 	81565.8 	6.72333e-05 	0.241875 	0 	0
0.00354676 	81565.8 	6.72491e-05 	0.334202 	0 	0
0.0045362 	81565.8 	6.72735e-05 	0.427354 	0 	0
0.00552938 	81565.8 	6.7307e-05 	0.520913 	0 	0
0.0065246 	81565.8 	6.73495e-05 	0.614667 	0 	0
0.00752105 	81565.8 	6.74002e-05 	0.708539 	0 	0
0.00851829 	81565.8 	6.74583e-05 	0.802486 	0 	0
0.00951608 	81565.8 	6.75226e-05 	0.896485 	0 	0
0.0105143 	81565.8 	6.75922e-05 	0.990521 	0 	0
0.0115127 	81565.8 	6.7666e-05 	1.08458 	0 	0
0.0125114 	81565.8 	6.7743e-05 	1.17867 	0 	0
0.0135103 	81565.8 	6.78221e-05 	1.27277 	0 	0
0.0145093 	81565.8 	6.79022e-05 	1.36688 	0 	0
0.0155084 	81565.8 	6.79825e-05 	1.461 	0 	0
0.0165076 	81565.8 	6.80618e-05 	1.55513 	0 	0
0.0175069 	81565.8 	6.81395e-05 	1.64927 	0 	0
0.0185062 	81565.8 	6.82151e-05 	1.74342 	0 	0
0.0195056 	81565.8 	6.82883e-05 	1.83757 	0 	0
0.020505 	81565.9 	6.83588e-05 	1.93172 	0 	0
0.0215045 	81565.9 	6.84267e-05 	2.02588 	0 	0
0.022504 	81565.9 	6.84917e-05 	2.12004 	0 	0
0.0235035 	81565.9 	6.85533e-05 	2.2142 	0 	0
0.0245031 	81565.9 	6.86106e-05 	2.30837 	0 	0
0.0255027 	81565.9 	6.86622e-05 	2.40254 	0 	0
0.0265023 	81565.9 	6.87061e-05 	2.49671 	0 	0
0.0275019 	81565.9 	6.87403e-05 	2.59088 	0 	0
0.0285015 	81565.9 	6.87633e-05 	2.68505 	0 	0
0.0295012 	81565.9 	6.8776e-05 	2.77922 	0 	0
0.0305008 	81565.9 	6.87811e-05 	2.8734 	0 	0
0.0315005 	81565.9 	6.87827e-05 	2.96758 	0 	0
0.0325002 	81565.9 	6.87832e-05 	3.06175 	0 	0
0.0334999 	81565.9 	6.87834e-05 	3.15593 	0 	0
0.0344996 	81565.9 	6.87835e-05 	3.25011 	0 	0
0.0354993 	81565.9 	6.87836e-05 	3.34429 	0 	0
0.036499 	81565.9 	6.87837e-05 	3.43847 	0 	0
0.0374987 	81565.9 	6.87839e-05 	3.53266 	0 	0
0.0384985 	81565.9 	6.87841e-05 	3.62684 	0 	0
0.0394982 	81565.9 	6.87845e-05 	3.72102 	0 	0
0.040498 	81565.9 	6.87851e-05 	3.81521 	0 	0
0.0414977 	81565.9 	6.8786e-05 	3.90939 	0 	0
0.0424975 	81565.9 	6.87875e-05 	4.00357 	0 	0
0.0434972 	81565.9 	6.87898e-05 	4.09776 	0 	0
0.044497 	81565.9 	6.87931e-05 	4.19194 	0 	0
0.0454967 	81565.9 	6.87978e-05 	4.28613 	0 	0
0.0464965 	81565.9 	6.88043e-05 	4.38032 	0 	0
0.0474963 	81565.9 	6.88132e-05 	4.4745 	0 	0
0.0484961 	81565.9 	6.88248e-05 	4.56869 	0 	0
0.0494958 	81565.9 	6.88399e-05 	4.66288 	0 	0
0.0504956 	81565.9 	6.8859e-05 	4.75706 	0 	0
0.0514954 	81565.9 	6.88828e-05 	4.85125 	0 	0
0.0524952 	81565.9 	6.89119e-05 	4.94544 	0 	0
0.053495 	81565.9 	6.89471e-05 	5.03963 	0 	0
0.0544948 	81565.9 	6.89889e-05 	5.13381 	0 	0
0.0554946 	81565.9 	6.90382e-05 	5.228 	0 	0
0.0564944 	81565.9 	6.90957e-05 	5.32219 	0 	0
0.0574942 	81565.9 	6.91622e-05 	5.41638 	0 	0
0.058494 	81565.9 	6.92385e-05 	5.51057 	0 	0
0.0594938 	81565.9 	6.93254e-05 	5.60476 	0 	0
0.0604936 	81565.9 	6.94241e-05 	5.69895 	0 	0
0.0614934 	81565.9 	6.95354e-05 	5.79314 	0 	0
0.0624932 	81565.9 	6.96606e-05 	5.88733 	0 	0
0.063493 	81565.9 	6.98009e-05 	5.98152 	0 	0
0.0644928 	81565.9 	6.99576e-05 	6.07571 	0 	0
0.0654926 	81565.9 	7.01322e-05 	6.1699 	0 	0
0.0664924 	81565.9 	7.03262e-05 	6.2641 	0 	0
0.0674922 	81565.9 	7.05413e-05 	6.35829 	0 	0
0.068492 	81565.9 	7.07791e-05 	6.45248 	0 	0
0.0694918 	81565.9 	7.10415e-05 	6.54668 	0 	0
0.0704916 	81565.9 	7.13304e-05 	6.64087 	0 	0
0.0714915 	81565.9 	7.16478e-05 	6.73506 	0 	0
0.0724913 	81565.9 	7.19956e-05 	6.82926 	0 	0
0.0734911 	81565.9 	7.23761e-05 	6.92346 	0 	0
0.0744909 	81565.9 	7.27913e-05 	7.01766 	0 	0
0.0754907 	81565.9 	7.32436e-05 	7.11185 	0 	0
0.0764906 	81565.9 	7.37352e-05 	7.20605 	0 	0
0.0774904 	81565.9 	7.42685e-05 	7.30026 	0 	0
0.0784902 	81566 	7.4846e-05 	7.39446 	0 	0
0.07949 	81566 	7.54704e-05 	7.48866 	0 	0
0.0804898 	81566 	7.61441e-05 	7.58287 	0 	0
0.0814897 	81566 	7.68701e-05 	7.67708 	0 	0
0.0824895 	81566 	7.76512e-05 	7.77129 	0 	0
0.0834893 	81566 	7.84905e-05 	7.8655 	0 	0
0.0844891 	81566 	7.93913e-05 	7.95972 	0 	0
0.085489 	81566 	8.03568e-05 	8.05393 	0 	0
0.0864888 	81566 	8.13906e-05 	8.14815 	0 	0
0.0874886 	81566 	8.24965e-05 	8.24238 	0 	0
0.0884884 	81566 	8.36785e-05 	8.3366 	0 	0
0.0894883 	81566 	8.49407e-05 	8.43083 	0 	0
0.0904881 	81566 	8.62877e-05 	8.52506 	0 	0
0.0914879 	81566 	8.7724e-05 	8.6193 	0 	0
0.0924877 	81566 	8.92548e-05 	8.71354 	0 	0
0.0934876 	81566 	9.08852e-05 	8.80778 	0 	0
0.0944874 	81566 	9.26209e-05 	8.90202 	0 	0
0.0954872 	81566 	9.44677e-05 	8.99627 	0 	0
0.0964871 	81566 	9.6432e-05 	9.09053 	0 	0
0.0974869 	81566 	9.85205e-05 	9.18479 	0 	0
0.0984867 	81566 	0.00010074 	9.27905 	0 	0
0.0994866 	81566 	0.000103098 	9.37331 	0 	0
0.100486 	81566 	0.000105603 	9.46759 	0 	0
0.101486 	81566 	0.000108263 	9.56186 	0 	0
0.102486 	81566 	0.000111088 	9.65614 	0 	0
0.103486 	81566.1 	0.000114085 	9.75042 	0 	0
0.104486 	81566.1 	0.000117267 	9.84471 	0 	0
0.105486 	81566.1 	0.000120642 	9.93901 	0 	0
0.106485 	81566.1 	0.000124224 	10.0333 	0 	0
0.107485 	81566.1 	0.000128024 	10.1276 	0 	0
0.108485 	81566.1 	0.000132055 	10.2219 	0 	0
0.109485 	81566.1 	0.000136331 	10.3162 	0 	0
0.110485 	81566.1 	0.000140867 	10.4105 	0 	0
0.111485 	81566.1 	0.000145679 	10.5049 	0 	0
0.112484 	81566.1 	0.000150783 	10.5992 	0 	0
0.113484 	81566.1 	0.000156198 	10.6935 	0 	0
0.114484 	81566.1 	0.000161942 	10.7878 	0 	0
0.115484 	81566.1 	0.000168037 	10.8822 	0 	0
0.116484 	81566.2 	0.000174504 	10.9765 	0 	0
0.117484 	81566.2 	0.000181367 	11.0708 	0 	0
0.118483 	81566.2 	0.000188652 	11.1652 	0 	0
0.119483 	81566.2 	0.000196385 	11.2595 	0 	0
0.120483 	81566.2 	0.000204596 	11.3539 	0 	0
0.121483 	81566.2 	0.000213316 	11.4482 	0 	0
0.122483 	81566.2 	0.000222578 	11.5426 	0 	0
0.123483 	81566.2 	0.000232419 	11.637 	0 	0
0.124482 	81566.3 	0.000242877 	11.7313 	0 	0
0.125482 	81566.3 	0.000253994 	11.8257 	0 	0
0.126482 	81566.3 	0.000265814 	11.9201 	0 	0
0.127482 	81566.3 	0.000278387 	12.0144 	0 	0
0.128482 	81566.3 	0.000291763 	12.1088 	0 	0
0.129482 	81566.3 	0.000305998 	12.2032 	0 	0
0.130481 	81566.4 	0.000321153 	12.2976 	0 	0
0.131481 	81566.4 	0.000337291 	12.392 	0 	0
0.132481 	81566.4 	0.000354484 	12.4864 	0 	0
0.133481 	81566.4 	0.000372804 	12.5808 	0 	0
0.134481 	81566.5 	0.000392334 	12.6752 	0 	0
0.135481 	81566.5 	0.000413158 	12.7696 	0 	0
0.13648 	81566.5 	0.000435372 	12.864 	0 	0
0.13748 	81566.5 	0.000459074 	12.9584 	0 	0
0.13848 	81566.6 	0.000484371 	13.0528 	0 	0
0.13948 	81566.6 	0.00051138 	13.1472 	0 	0
0.14048 	81566.6 	0.000540224 	13.2416 	0 	0
0.14148 	81566.7 	0.000571034 	13.336 	0 	0
0.14248 	81566.7 	0.000603952 	13.4304 	0 	0
0.143479 	81566.8 	0.00063913 	13.5248 	0 	0
0.144479 	81566.8 	0.000676727 	13.6192 	0 	0
0.145479 	81566.9 	0.000716914 	13.7137 	0 	0
0.146479 	81566.9 	0.000759873 	13.8081 	0 	0
0.147479 	81567 	0.000805796 	13.9025 	0 	0
0.148479 	81567 	0.000854885 	13.9969 	0 	0
0.149478 	81567.1 	0.000907354 	14.0913 	0 	0
0.150478 	81567.2 	0.000963424 	14.1857 	0 	0
0.151478 	81567.2 	0.00102333 	14.2801 	0 	0
0.152478 	81567.3 	0.00108731 	14.3744 	0 	0
0.153478 	81567.4 	0.00115563 	14.4688 	0 	0
0.154478 	81567.5 	0.00122853 	14.5632 	0 	0
0.155477 	81567.6 	0.00130628 	14.6575 	0 	0
0.156477 	81567.7 	0.00138915 	14.7519 	0 	0
0.157477 	81567.8 	0.00147742 	14.8462 	0 	0
0.158477 	81567.9 	0.00157136 	14.9405 	0 	0
0.159477 	81568.1 	0.00167123 	15.0348 	0 	0
0.160477 	81568.2 	0.00177732 	15.1291 	0 	0
0.161476 	81568.3 	0.00188988 	15.2233 	0 	0
0.162476 	81568.5 	0.00200917 	15.3176 	0 	0
0.163476 	81568.7 	0.00213544 	15.4118 	0 	0
0.164476 	81568.8 	0.00226893 	15.506 	0 	0
0.165476 	81569 	0.00240985 	15.6002 	0 	0
0.166476 	81569.2 	0.00255842 	15.6944 	0 	0
0.167476 	81569.5 	0.00271482 	15.7885 	0 	0
0.168475 	81569.7 	0.00287923 	15.8827 	0 	0
0.169475 	81569.9 	0.00305181 	15.9768 	0 	0
0.170475 	81570.2 	0.00323271 	16.071 	0 	0
0.171475 	81570.5 	0.00342205 	16.1651 	0 	0
0.172475 	81570.8 	0.00361995 	16.2592 	0 	0
0.173475 	81571.1 	0.00382652 	16.3533 	0 	0
0.174474 	81571.5 	0.00404186 	16.4474 	0 	0
0.175474 	81571.8 	0.00426606 	16.5416 	0 	0
0.176474 	81572.2 	0.00449921 	16.6357 	0 	0
0.177474 	81572.6 	0.0047414 	16.7298 	0 	0
0.178474 	81573 	0.00499275 	16.824 	0 	0
0.179474 	81573.5 	0.00525334 	16.9181 	0 	0
0.180473 	81574 	0.0055233 	17.0123 	0 	0
0.181473 	81574.5 	0.00580274 	17.1065 	0 	0
0.182473 	81575 	0.00609182 	17.2007 	0 	0
0.183473 	81575.6 	0.00639068 	17.2949 	0 	0
0.184473 	81576.2 	0.0066995 	17.3892 	0 	0
0.185473 	81576.8 	0.00701846 	17.4834 	0 	0
0.186473 	81577.5 	0.00734777 	17.5777 	0 	0
0.187472 	81578.2 	0.00768765 	17.672 	0 	0
0.188472 	81578.9 	0.00803833 	17.7663 	0 	0
0.189472 	81579.7 	0.00840008 	17.8607 	0 	0
0.190472 	81580.5 	0.00877315 	17.9551 	0 	0
0.191472 	81581.3 	0.00915783 	18.0495 	0 	0
0.192472 	81582.2 	0.00955443 	18.1439 	0 	0
0.193471 	81583.2 	0.00996325 	18.2383 	0 	0
0.194471 	81584.1 	0.0103846 	18.3328 	0 	0
0.195471 	81585.2 	0.0108188 	18.4273 	0 	0
0.196471 	81586.2 	0.0112663 	18.5219 	0 	0
0.197471 	81587.4 	0.0117274 	18.6164 	0 	0
0.198471 	81588.5 	0.0122024 	18.711 	0 	0
0.199471 	81589.8 	0.0126917 	18.8056 	0 	0
0.20047 	81591.1 	0.0131958 	18.9003 	0 	0
0.20147 	81592.4 	0.013715 	18.995 	0 	0
0.20247 	81593.8 	0.0142497 	19.0897 	0 	0
0.20347 	81595.3 	0.0148003 	19.1845 	0 	0
0.20447 	81596.8 	0.0153674 	19.2793 	0 	0
0.20547 	81598.4 	0.0159513 	19.3741 	0 	0
0.206469 	81600 	0.0165526 	19.469 	0 	0
0.207469 	81601.8 	0.0171716 	19.5639 	0 	0
0.208469 	81603.6 	0.0178089 	19.6588 	0 	0
0.209469 	81605.5 	0.018465 	19.7538 	0 	0
0.210469 	81607.4 	0.0191404 	19.8488 	0 	0
0.211469 	81609.5 	0.0198357 	19.9439 	0 	0
0.212468 	81611.6 	0.0205515 	20.0391 	0 	0
0.213468 	81613.8 	0.0212883 	20.1342 	0 	0
0.214468 	81616.1 	0.0220467 	20.2295 	0 	0
0.215468 	81618.5 	0.0228275 	20.3247 	0 	0
0.216468 	81621 	0.0236311 	20.4201 	0 	0
0.217468 	81623.6 	0.0244585 	20.5155 	0 	0
0.218468 	81626.3 	0.0253102 	20.6109 	0 	0
0.219467 	81629.1 	0.0261869 	20.7065 	0 	0
0.220467 	81632 	0.0270895 	20.802 	0 	0
0.221467 	81635 	0.0280187 	20.8977 	0 	0
0.222467 	81638.1 	0.0289753 	20.9934 	0 	0
0.223467 	81641.4 	0.0299602 	21.0892 	0 	0
0.224467 	81644.8 	0.0309742 	21.185 	0 	0
0.225466 	81648.3 	0.0320182 	21.281 	0 	0
0.226466 	81651.9 	0.033093 	21.377 	0 	0
0.227466 	81655.7 	0.0341995 	21.4731 	0 	0
0.228466 	81659.7 	0.0353387 	21.5693 	0 	0
0.229466 	81663.8 	0.0365115 	21.6655 	0 	0
0.230466 	81668 	0.0377188 	21.7619 	0 	0
0.231466 	81672.4 	0.0389615 	21.8583 	0 	0
0.232465 	81676.9 	0.0402407 	21.9549 	0 	0
0.233465 	81681.7 	0.0415571 	22.0515 	0 	0
0.234465 	81686.6 	0.0429117 	22.1483 	0 	0
0.235465 	81691.7 	0.0443055 	22.2451 	0 	0
0.236465 	81696.9 	0.0457394 	22.3421 	0 	0
0.237465 	81702.4 	0.0472142 	22.4391 	0 	0
0.238464 	81708.1 	0.0487309 	22.5363 	0 	0
0.239464 	81713.9 	0.0502903 	22.6336 	0 	0
0.240464 	81720 	0.0518931 	22.7311 	0 	0
0.241464 	81726.3 	0.0535404 	22.8286 	0 	0
0.242464 	81732.9 	0.0552328 	22.9263 	0 	0
0.243464 	81739.6 	0.0569711 	23.0241 	0 	0
0.244464 	81746.6 	0.058756 	23.1221 	0 	0
0.245463 	81753.9 	0.0605883 	23.2202 	0 	0
0.246463 	81761.4 	0.0624688 	23.3185 	0 	0
0.247463 	81769.2 	0.0643979 	23.417 	0 	0
0.248463 	81777.2 	0.0663766 	23.5156 	0 	0
0.249463 	81785.5 	0.0684052 	23.6143 	0 	0
0.250463 	81794.2 	0.0704846 	23.7133 	0 	0
0.251462 	81803.1 	0.0726154 	23.8124 	0 	0
0.252462 	81812.3 	0.0747981 	23.9117 	0 	0
0.253462 	81821.8 	0.0770333 	24.0112 	0 	0
0.254462 	81831.7 	0.0793218 	24.111 	0 	0
0.255462 	81841.9 	0.081664 	24.2109 	0 	0
0.256462 	81852.4 	0.0840607 	24.311 	0 	0
0.257462 	81863.3 	0.0865125 	24.4114 	0 	0
0.258461 	81874.5 	0.08902 	24.5119 	0 	0
0.259461 	81886.1 	0.091584 	24.6128 	0 	0
0.260461 	81898.1 	0.094205 	24.7138 	0 	0
0.261461 	81910.5 	0.0968839 	24.8151 	0 	0
0.262461 	81923.3 	0.0996213 	24.9167 	0 	0
0.263461 	81936.5 	0.102418 	25.0185 	0 	0
0.26446 	81950.1 	0.105275 	25.1206 	0 	0
0.26546 	81964.1 	0.108192 	25.223 	0 	0
0.26646 	81978.6 	0.111172 	25.3257 	0 	0
0.26746 	81993.5 	0.114213 	25.4287 	0 	0
0.26846 	82008.9 	0.117318 	25.5321 	0 	0
0.26946 	82024.8 	0.120487 	25.6357 	0 	0
0.27046 	82041.2 	0.12372 	25.7397 	0 	0
0.271459 	82058.1 	0.12702 	25.8441 	0 	0
0.272459 	82075.4 	0.130385 	25.9488 	0 	0
0.273459 	82093.4 	0.133818 	26.054 	0 	0
0.274459 	82111.8 	0.137319 	26.1595 	0 	0
0.275459 	82130.9 	0.140888 	26.2655 	0 	0
0.276459 	82150.4 	0.144527 	26.3718 	0 	0
0.277458 	82170.6 	0.148235 	26.4787 	0 	0
0.278458 	82191.4 	0.152014 	26.586 	0 	0
0.279458 	82212.8 	0.155864 	26.6939 	0 	0
0.280458 	82234.8 	0.159786 	26.8022 	0 	0
0.281458 	82257.5 	0.163779 	26.9111 	0 	0
0.282458 	82280.8 	0.167845 	27.0205 	0 	0
0.283457 	82304.8 	0.171984 	27.1306 	0 	0
0.284457 	82329.5 	0.176195 	27.2412 	0 	0
0.285457 	82354.9 	0.18048 	27.3524 	0 	0
0.286457 	82381 	0.184838 	27.4643 	0 	0
0.287457 	82407.9 	0.189269 	27.5768 	0 	0
0.288457 	82435.5 	0.193773 	27.69 	0 	0
0.289457 	82463.9 	0.198351 	27.8038 	0 	0
0.290456 	82493.2 	0.203002 	27.9184 	0 	0
0.291456 	82523.2 	0.207725 	28.0338 	0 	0
0.292456 	82554 	0.212521 	28.1498 	0 	0
0.293456 	82585.7 	0.217389 	28.2667 	0 	0
0.294456 	82618.2 	0.222328 	28.3844 	0 	0
0.295456 	82651.6 	0.227339 	28.5028 	0 	0
0.296455 	82686 	0.23242 	28.6222 	0 	0
0.297455 	82721.2 	0.237571 	28.7423 	0 	0
0.298455 	82757.4 	0.242791 	28.8634 	0 	0
0.299455 	82794.5 	0.248079 	28.9854 	0 	0
0.300455 	82832.5 	0.253434 	29.1082 	0 	0
0.301455 	82871.6 	0.258857 	29.2321 	0 	0
0.302455 	82911.7 	0.264344 	29.3569 	0 	0
0.303454 	82952.8 	0.269896 	29.4827 	0 	0
0.304454 	82994.9 	0.275511 	29.6096 	0 	0
0.305454 	83038.1 	0.281188 	29.7376 	0 	0
0.306454 	83082.4 	0.286927 	29.8668 	0 	0
0.307454 	83127.8 	0.292724 	29.9971 	0 	0
0.308454 	83174.4 	0.298581 	30.1287 	0 	0
0.309453 	83222.1 	0.304494 	30.2616 	0 	0
0.310453 	83271 	0.310463 	30.3958 	0 	0
0.311453 	83321.1 	0.316486 	30.5315 	0 	0
0.312453 	83372.4 	0.322562 	30.6687 	0 	0
0.313453 	83425 	0.328689 	30.8073 	0 	0
0.314453 	83478.9 	0.334866 	30.9475 	0 	0
0.315453 	83534 	0.341091 	31.0892 	0 	0
0.316452 	83590.5 	0.347362 	31.2325 	0 	0
0.317452 	83648.3 	0.353678 	31.3774 	0 	0
0.318452 	83707.4 	0.360037 	31.5237 	0 	0
0.319452 	83767.8 	0.366437 	31.6714 	0 	0
0.320452 	83829.5 	0.372877 	31.8204 	0 	0
0.321452 	83892.5 	0.379354 	31.9704 	0 	0
0.322451 	83956.7 	0.385866 	32.1213 	0 	0
0.323451 	84022.1 	0.392411 	32.2727 	0 	0
0.324451 	84088.5 	0.398988 	32.4242 	0 	0
0.325451 	84156 	0.405593 	32.5756 	0 	0
0.326451 	84224.4 	0.412225 	32.7264 	0 	0
0.327451 	84293.7 	0.418882 	32.8763 	0 	0
0.328451 	84363.8 	0.425561 	33.0254 	0 	0
0.32945 	84434.8 	0.43226 	33.1737 	0 	0
0.33045 	84506.7 	0.438979 	33.3213 	0 	0
0.33145 	84579.7 	0.445715 	33.4688 	0 	0
0.33245 	84653.8 	0.452468 	33.6168 	0 	0
0.33345 	84729.2 	0.459236 	33.7658 	0 	0
0.33445 	84806 	0.466017 	33.9166 	0 	0
0.33545 	84884.5 	0.472811 	34.0698 	0 	0
0.336449 	84964.7 	0.479617 	34.2256 	0 	0
0.337449 	85046.6 	0.486432 	34.3845 	0 	0
0.338449 	85130.4 	0.493254 	34.5466 	0 	0
0.339449 	85216.1 	0.500082 	34.7117 	0 	0
0.340449 	85303.5 	0.506913 	34.8797 	0 	0
0.341449 	85392.8 	0.513745 	35.0504 	0 	0
0.342448 	85483.7 	0.520575 	35.2237 	0 	0
0.343448 	85576.4 	0.5274 	35.3995 	0 	0
0.344448 	85670.8 	0.534217 	35.5776 	0 	0
0.345448 	85766.9 	0.541025 	35.758 	0 	0
0.346448 	85864.7 	0.54782 	35.9408 	0 	0
0.347448 	85964.3 	0.554601 	36.1261 	0 	0
0.348448 	86065.7 	0.561366 	36.3139 	0 	0
0.349447 	86168.9 	0.568112 	36.5045 	0 	0
0.350447 	86274 	0.574838 	36.6982 	0 	0
0.351447 	86381.1 	0.581544 	36.8951 	0 	0
0.352447 	86490.3 	0.588227 	37.0954 	0 	0
0.353447 	86601.6 	0.594887 	37.2994 	0 	0
0.354447 	86714.9 	0.601523 	37.507 	0 	0
0.355446 	86830.4 	0.608134 	37.718 	0 	0
0.356446 	86947.7 	0.614719 	37.9318 	0 	0
0.357446 	87066.8 	0.621276 	38.1478 	0 	0
0.358446 	87187.3 	0.627803 	38.365 	0 	0
0.359446 	87309.1 	0.634298 	38.5825 	0 	0
0.360446 	87431.9 	0.640761 	38.7999 	0 	0
0.361446 	87555.9 	0.64719 	39.0171 	0 	0
0.362445 	87681 	0.653585 	39.2348 	0 	0
0.363445 	87807.8 	0.659949 	39.4545 	0 	0
0.364445 	87936.6 	0.666282 	39.6774 	0 	0
0.365445 	88067.8 	0.672585 	39.9048 	0 	0
0.366445 	88201.5 	0.67886 	40.1371 	0 	0
0.367445 	88337.5 	0.685103 	40.3736 	0 	0
0.368444 	88475.5 	0.691313 	40.6131 	0 	0
0.369444 	88614.9 	0.697486 	40.8536 	0 	0
0.370444 	88755.3 	0.703618 	41.0938 	0 	0
0.371444 	88896.5 	0.709708 	41.3332 	0 	0
0.372444 	89038.6 	0.715756 	41.5721 	0 	0
0.373444 	89182.1 	0.721763 	41.8118 	0 	0
0.374444 	89327.2 	0.727732 	42.0536 	0 	0
0.375443 	89474.3 	0.733664 	42.2986 	0 	0
0.376443 	89623.5 	0.73956 	42.5471 	0 	0
0.377443 	89774.7 	0.745421 	42.7988 	0 	0
0.378443 	89928 	0.751246 	43.0538 	0 	0
0.379443 	90083.5 	0.757039 	43.3125 	0 	0
0.380443 	90241.5 	0.762801 	43.5761 	0 	0
0.381442 	90402.6 	0.768538 	43.8461 	0 	0
0.382442 	90566.9 	0.774252 	44.1232 	0 	0
0.383442 	90734.6 	0.779946 	44.4074 	0 	0
0.384442 	90905 	0.785617 	44.6971 	0 	0
0.385442 	91077.5 	0.791261 	44.9897 	0 	0
0.386442 	91250.9 	0.796873 	45.282 	0 	0
0.387442 	91424.7 	0.802447 	45.5718 	0 	0
0.388441 	91598.3 	0.807978 	45.8579 	0 	0
0.389441 	91771.8 	0.813462 	46.1405 	0 	0
0.390441 	91945.6 	0.818895 	46.4207 	0 	0
0.391441 	92120 	0.824274 	46.7 	0 	0
0.392441 	92295.4 	0.829593 	46.9795 	0 	0
0.393441 	92472.3 	0.834848 	47.2601 	0 	0
0.39444 	92650.6 	0.840032 	47.5425 	0 	0
0.39544 	92830.6 	0.845143 	47.827 	0 	0
0.39644 	93012.4 	0.850179 	48.1143 	0 	0
0.39744 	93196.3 	0.855143 	48.405 	0 	0
0.39844 	93382.6 	0.860042 	48.7002 	0 	0
0.39944 	93571.7 	0.864883 	49.0014 	0 	0
0.40044 	93764.4 	0.869678 	49.3102 	0 	0
0.401439 	93961.5 	0.874442 	49.6291 	0 	0
0.402439 	94163.7 	0.87919 	49.9607 	0 	0
0.403439 	94372.2 	0.883935 	50.3075 	0 	0
0.404439 	94587.3 	0.888691 	50.671 	0 	0
0.405439 	94809.2 	0.893463 	51.051 	0 	0
0.406439 	95036.9 	0.898252 	51.4445 	0 	0
0.407438 	95268.5 	0.903049 	51.846 	0 	0
0.408438 	95501.3 	0.90784 	52.2477 	0 	0
0.409438 	95732.7 	0.912609 	52.642 	0 	0
0.410438 	95960.5 	0.917342 	53.0231 	0 	0
0.411438 	96184 	0.922033 	53.3887 	0 	0
0.412438 	96403.8 	0.926683 	53.7407 	0 	0
0.413438 	96621.6 	0.931302 	54.0846 	0 	0
0.414437 	96840 	0.935902 	54.4273 	0 	0
0.415437 	97061.2 	0.940492 	54.7753 	0 	0
0.416437 	97287 	0.945079 	55.1336 	0 	0
0.417437 	97518.1 	0.949663 	55.5043 	0 	0
0.418437 	97754.3 	0.954237 	55.8871 	0 	0
0.419437 	97995 	0.958795 	56.2793 	0 	0
0.420436 	98239.1 	0.963327 	56.6774 	0 	0
0.421436 	98486 	0.967829 	57.078 	0 	0
0.422436 	98735.2 	0.972298 	57.479 	0 	0
0.423436 	98986.5 	0.976735 	57.88 	0 	0
0.424436 	99239.6 	0.981142 	58.2827 	0 	0
0.425436 	99493.8 	0.985518 	58.6905 	0 	0
0.426436 	99748.2 	0.989857 	59.1071 	0 	0
0.427435 	100002 	0.994158 	59.5356 	0 	0
0.428435 	100256 	0.998422 	59.9755 	0 	0
0.429435 	100511 	1.00266 	60.422 	0 	0
0.430435 	100771 	1.00691 	60.8649 	0 	0
0.431435 	101041 	1.0112 	61.2907 	0 	0
0.432435 	101325 	1.01557 	61.6869 	0 	0
0.433434 	101627 	1.02004 	62.0485 	0 	0
0.434434 	101942 	1.02459 	62.3823 	0 	0
0.435434 	102264 	1.02918 	62.7099 	0 	0
0.436434 	102579 	1.0337 	63.066 	0 	0
0.437434 	102871 	1.03804 	63.493 	0 	0
0.438434 	103124 	1.04208 	64.0308 	0 	0
0.439434 	103326 	1.04575 	64.7039 	0 	0
0.440433 	103477 	1.04903 	65.5143 	0 	0
0.441433 	103584 	1.05198 	66.4428 	0 	0
0.442433 	103660 	1.05466 	67.457 	0 	0
0.443433 	103718 	1.05719 	68.5204 	0 	0
0.444433 	103773 	1.05967 	69.5973 	0 	0
0.445433 	103838 	1.06218 	70.6541 	0 	0
0.446433 	103924 	1.0648 	71.6642 	0 	0
0.447432 	104035 	1.06756 	72.6146 	0 	0
0.448432 	104172 	1.07047 	73.5062 	0 	0
0.449432 	104331 	1.0735 	74.3491 	0 	0
0.450432 	104506 	1.07661 	75.1572 	0 	0
0.451432 	104693 	1.07976 	75.944 	0 	0
0.452432 	104886 	1.08292 	76.7201 	0 	0
0.453431 	105085 	1.08607 	77.4922 	0 	0
0.454431 	105286 	1.08921 	78.2636 	0 	0
0.455431 	105490 	1.09233 	79.0351 	0 	0
0.456431 	105697 	1.09544 	79.8066 	0 	0
0.457431 	105908 	1.09854 	80.5772 	0 	0
0.458431 	106121 	1.10163 	81.3467 	0 	0
0.459431 	106339 	1.10473 	82.1147 	0 	0
0.46043 	106559 	1.10784 	82.8815 	0 	0
0.46143 	106784 	1.11095 	83.647 	0 	0
0.46243 	107011 	1.11407 	84.4117 	0 	0
0.46343 	107242 	1.1172 	85.1754 	0 	0
0.46443 	107476 	1.12035 	85.9383 	0 	0
0.46543 	107714 	1.12351 	86.7006 	0 	0
0.466429 	107954 	1.12669 	87.4621 	0 	0
0.467429 	108198 	1.12987 	88.223 	0 	0
0.468429 	108446 	1.13307 	88.9834 	0 	0
0.469429 	108696 	1.13627 	89.7432 	0 	0
0.470429 	108950 	1.13947 	90.5027 	0 	0
0.471429 	109207 	1.14268 	91.2617 	0 	0
0.472429 	109467 	1.1459 	92.0206 	0 	0
0.473428 	109730 	1.14913 	92.7792 	0 	0
0.474428 	109996 	1.15236 	93.5378 	0 	0
0.475428 	110266 	1.15559 	94.2964 	0 	0
0.476428 	110539 	1.15883 	95.0552 	0 	0
0.477428 	110815 	1.16207 	95.814 	0 	0
0.478428 	111094 	1.16532 	96.5732 	0 	0
0.479427 	111377 	1.16858 	97.3326 	0 	0
0.480427 	111662 	1.17185 	98.0924 	0 	0
0.481427 	111951 	1.17513 	98.8526 	0 	0
0.482427 	112244 	1.17842 	99.6132 	0 	0
0.483427 	112539 	1.18172 	100.374 	0 	0
0.484427 	112837 	1.18503 	101.136 	0 	0
0.485427 	113139 	1.18834 	101.898 	0 	0
0.486426 	113444 	1.19167 	102.66 	0 	0
0.487426 	113752 	1.195 	103.423 	0 	0
0.488426 	114063 	1.19834 	104.187 	0 	0
0.489426 	114377 	1.2017 	104.951 	0 	0
0.490426 	114695 	1.20508 	105.716 	0 	0
0.491426 	115015 	1.20847 	106.482 	0 	0
0.492425 	115339 	1.21187 	107.248 	0 	0
0.493425 	115666 	1.21529 	108.016 	0 	0
0.494425 	115996 	1.21871 	108.783 	0 	0
0.495425 	116330 	1.22214 	109.553 	0 	0
0.496425 	116664 	1.22557 	110.318 	0 	0
0.497425 	117012 	1.22911 	111.107 	0 	0
0.498425 	117322 	1.23226 	111.804 	0 	0
0.499424 	117871 	1.23777 	113.023 	0 	0
