/*--------------------------------*- C++ -*----------------------------------*\
| =========                 |                                                 |
| \\      /  F ield         | OpenFOAM: The Open Source CFD Toolbox           |
|  \\    /   O peration     | Version:  2312                                  |
|   \\  /    A nd           | Website:  www.openfoam.com                      |
|    \\/     M anipulation  |                                                 |
\*---------------------------------------------------------------------------*/
FoamFile
{
    version     2.0;
    format      ascii;
    arch        "LSB;label=32;scalar=64";
    class       volScalarField;
    location    "3e-05";
    object      p;
}
// * * * * * * * * * * * * * * * * * * * * * * * * * * * * * * * * * * * * * //

dimensions      [1 -1 -2 0 0 0 0];

internalField   nonuniform List<scalar> 
500
(
1.45028e+06
1.45033e+06
1.45035e+06
1.45037e+06
1.45038e+06
1.45039e+06
1.4504e+06
1.45041e+06
1.45042e+06
1.45043e+06
1.45044e+06
1.45046e+06
1.45047e+06
1.45049e+06
1.4505e+06
1.45052e+06
1.45054e+06
1.45056e+06
1.45057e+06
1.45059e+06
1.45061e+06
1.45063e+06
1.45065e+06
1.45067e+06
1.45068e+06
1.4507e+06
1.45072e+06
1.45074e+06
1.45077e+06
1.45079e+06
1.45081e+06
1.45083e+06
1.45085e+06
1.45088e+06
1.4509e+06
1.45092e+06
1.45095e+06
1.45097e+06
1.45106e+06
1.4511e+06
1.451e+06
1.45113e+06
1.45115e+06
1.45114e+06
1.45116e+06
1.45118e+06
1.45121e+06
1.45123e+06
1.45126e+06
1.45128e+06
1.45131e+06
1.45133e+06
1.45136e+06
1.45138e+06
1.4514e+06
1.45143e+06
1.45145e+06
1.45147e+06
1.4515e+06
1.45153e+06
1.45157e+06
1.45162e+06
1.45167e+06
1.45174e+06
1.45182e+06
1.45193e+06
1.45204e+06
1.45218e+06
1.45232e+06
1.4525e+06
1.45269e+06
1.45289e+06
1.45311e+06
1.45335e+06
1.45359e+06
1.45384e+06
1.4541e+06
1.45437e+06
1.45464e+06
1.45493e+06
1.45526e+06
1.45564e+06
1.45609e+06
1.4566e+06
1.45719e+06
1.45785e+06
1.45859e+06
1.45938e+06
1.46021e+06
1.46106e+06
1.46194e+06
1.46291e+06
1.46402e+06
1.46529e+06
1.46673e+06
1.46831e+06
1.47004e+06
1.47183e+06
1.47371e+06
1.47579e+06
1.47814e+06
1.4808e+06
1.48371e+06
1.48681e+06
1.48999e+06
1.49354e+06
1.49756e+06
1.50206e+06
1.50685e+06
1.51175e+06
1.51715e+06
1.52336e+06
1.53024e+06
1.53731e+06
1.54465e+06
1.55328e+06
1.5629e+06
1.57262e+06
1.58304e+06
1.5952e+06
1.60827e+06
1.62143e+06
1.63678e+06
1.65367e+06
1.67069e+06
1.69266e+06
1.71157e+06
1.73942e+06
1.76034e+06
1.79415e+06
1.81836e+06
1.85893e+06
1.88743e+06
1.93601e+06
1.96978e+06
2.02652e+06
2.06737e+06
2.13136e+06
2.18283e+06
2.25376e+06
2.32074e+06
2.40298e+06
2.49112e+06
2.59065e+06
2.70091e+06
2.82479e+06
2.96809e+06
3.14732e+06
3.39094e+06
3.54646e+06
3.46416e+06
2.99415e+06
1.53538e+06
232015
103487
100074
99999.2
99997.6
99997.6
99997.6
99997.6
99997.6
99997.6
99997.6
99997.6
99997.6
99997.6
99997.6
99997.6
99997.6
99997.6
99997.6
99997.6
99997.6
99997.6
99997.6
99997.6
99997.6
99997.6
99997.6
99997.6
99997.6
99997.6
99997.6
99997.6
99997.6
99997.6
99997.6
99997.6
99997.6
99997.6
99997.6
99997.6
99997.6
99997.6
99997.6
99997.6
99997.6
99997.6
99997.6
99997.6
99997.6
99997.6
99997.6
99997.6
99997.6
99997.6
99997.6
99997.6
99997.6
99997.6
99997.6
99997.6
99997.6
99997.6
99997.6
99997.6
99997.6
99997.6
99997.6
99997.6
99997.6
99997.6
99997.6
99997.6
99997.6
99997.6
99997.6
99997.6
99997.6
99997.6
99997.6
99997.6
99997.6
99997.6
99997.6
99997.6
99997.6
99997.6
99997.6
99997.6
99997.6
99997.6
99997.6
99997.6
99997.6
99997.6
99997.6
99997.6
99997.6
99997.6
99997.6
99997.6
99997.6
99997.6
99997.6
99997.6
99997.6
99997.6
99997.6
99997.6
99997.6
99997.6
99997.6
99997.6
99997.6
99997.6
99997.6
99997.6
99997.6
99997.6
99997.6
99997.6
99997.6
99997.6
99997.6
99997.6
99997.6
99997.6
99997.6
99997.6
99997.6
99997.6
99997.6
99997.6
99997.6
99997.6
99997.6
99997.6
99997.6
99997.6
99997.6
99997.6
99997.6
99997.6
99997.6
99997.6
99997.6
99997.6
99997.6
99997.6
99997.6
99997.6
99997.6
99997.6
99997.6
99997.6
99997.6
99997.6
99997.6
99997.6
99997.6
99997.6
99997.6
99997.6
99997.6
99997.6
99997.6
99997.6
99997.6
99997.6
99997.6
99997.6
99997.6
99997.6
99997.6
99997.6
99997.6
99997.6
99997.6
99997.6
99997.6
99997.6
99997.6
99997.6
99997.6
99997.6
99997.6
99997.6
99997.6
99997.6
99997.6
99997.6
99997.6
99997.6
99997.6
99997.6
99997.6
99997.6
99997.6
99997.6
99997.6
99997.6
99997.6
99997.6
99997.6
99997.6
99997.6
99997.6
99997.6
99997.6
99997.6
99997.6
99997.6
99997.6
99997.6
99997.6
99997.6
99997.6
99997.6
99997.6
99997.6
99997.6
99997.6
99997.6
99997.6
99997.6
99997.6
99997.6
99997.6
99997.6
99997.6
99997.6
99997.6
99997.6
99997.6
99997.6
99997.6
99997.6
99997.6
99997.6
99997.6
99997.6
99997.6
99997.6
99997.6
99997.6
99997.6
99997.6
99997.6
99997.6
99997.6
99997.6
99997.6
99997.6
99997.6
99997.6
99997.6
99997.6
99997.6
99997.6
99997.6
99997.6
99997.6
99997.6
99997.6
99997.6
99997.6
99997.6
99997.6
99997.6
99997.6
99997.6
99997.6
99997.6
99997.6
99997.6
99997.6
99997.6
99997.6
99997.6
99997.6
99997.6
99997.6
99997.6
99997.6
99997.6
99997.6
99997.6
99997.6
99997.6
99997.6
99997.6
99997.6
99997.6
99997.6
99997.6
99997.6
99997.6
99997.6
99997.6
99997.6
99997.6
99997.6
99997.6
99997.6
99997.6
99997.6
99997.6
99997.6
99997.6
99997.6
99997.6
99997.6
99997.6
99997.6
99997.6
99997.6
99997.6
99997.6
99997.6
99997.6
99997.6
99997.6
99997.6
99997.6
99997.6
99997.6
99997.6
99997.6
99997.6
99997.6
99997.6
99997.6
99997.6
99997.6
99997.6
99997.6
99997.6
99997.6
99997.6
99997.6
99997.6
99997.6
99997.6
99997.6
99997.6
99997.6
99997.6
99997.6
)
;

boundaryField
{
    wedge0
    {
        type            wedge;
    }
    wedge1
    {
        type            wedge;
    }
    wedge2
    {
        type            wedge;
    }
    wedge3
    {
        type            wedge;
    }
    outlet
    {
        type            zeroGradient;
    }
    defaultFaces
    {
        type            empty;
    }
}


// ************************************************************************* //
