/*--------------------------------*- C++ -*----------------------------------*\
| =========                 |                                                 |
| \\      /  F ield         | OpenFOAM: The Open Source CFD Toolbox           |
|  \\    /   O peration     | Version:  2312                                  |
|   \\  /    A nd           | Website:  www.openfoam.com                      |
|    \\/     M anipulation  |                                                 |
\*---------------------------------------------------------------------------*/
FoamFile
{
    version     2.0;
    format      ascii;
    arch        "LSB;label=32;scalar=64";
    class       volScalarField;
    location    "3e-05";
    object      rho;
}
// * * * * * * * * * * * * * * * * * * * * * * * * * * * * * * * * * * * * * //

dimensions      [1 -3 0 0 0 0 0];

internalField   nonuniform List<scalar> 
500
(
0.000670529
0.000670655
0.000670885
0.000671247
0.000671772
0.000672494
0.000673444
0.000674655
0.000676163
0.000678002
0.000680207
0.000682816
0.000685867
0.000689402
0.000693464
0.000698097
0.000703351
0.000709278
0.000715933
0.00072338
0.000731684
0.00074092
0.000751171
0.000762525
0.000775085
0.000788964
0.000804288
0.000821201
0.000839867
0.00086047
0.000883222
0.000908367
0.000936185
0.000967003
0.0010012
0.00103921
0.00108157
0.00112889
0.00118196
0.00124158
0.00130775
0.00138004
0.00145805
0.00154203
0.00163248
0.0017299
0.00183488
0.00194806
0.00207014
0.00220188
0.00234411
0.00249775
0.00266379
0.00284331
0.00303749
0.00324763
0.00347512
0.0037215
0.00398844
0.00427777
0.00459148
0.00493172
0.00530086
0.00570148
0.00613634
0.00660851
0.00712125
0.00767818
0.00828314
0.0089404
0.00965445
0.0104303
0.0112732
0.0121889
0.0131837
0.0142642
0.0154377
0.0167119
0.0180952
0.0195969
0.0212267
0.0229954
0.0249144
0.0269959
0.0292534
0.0317005
0.0343527
0.0372252
0.040335
0.0436994
0.0473376
0.0512711
0.0555224
0.0601155
0.0650753
0.070427
0.0761973
0.0824119
0.0891
0.0962975
0.104041
0.112368
0.121313
0.130914
0.141205
0.152246
0.164092
0.176798
0.190405
0.204956
0.220542
0.237258
0.255172
0.27431
0.294758
0.316716
0.340264
0.365385
0.392279
0.421204
0.452201
0.485307
0.520983
0.559325
0.600501
0.645252
0.693019
0.745481
0.800984
0.862609
0.927294
1.00024
1.07644
1.16356
1.25401
1.35826
1.46659
1.59109
1.72239
1.87114
2.03141
2.21153
2.41073
2.63322
2.88122
3.15884
3.47289
3.84135
4.30506
4.70249
4.86302
4.65329
3.15563
1.44187
1.17771
1.16153
1.16101
1.161
1.161
1.161
1.161
1.161
1.161
1.161
1.161
1.161
1.161
1.161
1.161
1.161
1.161
1.161
1.161
1.161
1.161
1.161
1.161
1.161
1.161
1.161
1.161
1.161
1.161
1.161
1.161
1.161
1.161
1.161
1.161
1.161
1.161
1.161
1.161
1.161
1.161
1.161
1.161
1.161
1.161
1.161
1.161
1.161
1.161
1.161
1.161
1.161
1.161
1.161
1.161
1.161
1.161
1.161
1.161
1.161
1.161
1.161
1.161
1.161
1.161
1.161
1.161
1.161
1.161
1.161
1.161
1.161
1.161
1.161
1.161
1.161
1.161
1.161
1.161
1.161
1.161
1.161
1.161
1.161
1.161
1.161
1.161
1.161
1.161
1.161
1.161
1.161
1.161
1.161
1.161
1.161
1.161
1.161
1.161
1.161
1.161
1.161
1.161
1.161
1.161
1.161
1.161
1.161
1.161
1.161
1.161
1.161
1.161
1.161
1.161
1.161
1.161
1.161
1.161
1.161
1.161
1.161
1.161
1.161
1.161
1.161
1.161
1.161
1.161
1.161
1.161
1.161
1.161
1.161
1.161
1.161
1.161
1.161
1.161
1.161
1.161
1.161
1.161
1.161
1.161
1.161
1.161
1.161
1.161
1.161
1.161
1.161
1.161
1.161
1.161
1.161
1.161
1.161
1.161
1.161
1.161
1.161
1.161
1.161
1.161
1.161
1.161
1.161
1.161
1.161
1.161
1.161
1.161
1.161
1.161
1.161
1.161
1.161
1.161
1.161
1.161
1.161
1.161
1.161
1.161
1.161
1.161
1.161
1.161
1.161
1.161
1.161
1.161
1.161
1.161
1.161
1.161
1.161
1.161
1.161
1.161
1.161
1.161
1.161
1.161
1.161
1.161
1.161
1.161
1.161
1.161
1.161
1.161
1.161
1.161
1.161
1.161
1.161
1.161
1.161
1.161
1.161
1.161
1.161
1.161
1.161
1.161
1.161
1.161
1.161
1.161
1.161
1.161
1.161
1.161
1.161
1.161
1.161
1.161
1.161
1.161
1.161
1.161
1.161
1.161
1.161
1.161
1.161
1.161
1.161
1.161
1.161
1.161
1.161
1.161
1.161
1.161
1.161
1.161
1.161
1.161
1.161
1.161
1.161
1.161
1.161
1.161
1.161
1.161
1.161
1.161
1.161
1.161
1.161
1.161
1.161
1.161
1.161
1.161
1.161
1.161
1.161
1.161
1.161
1.161
1.161
1.161
1.161
1.161
1.161
1.161
1.161
1.161
1.161
1.161
1.161
1.161
1.161
1.161
1.161
1.161
1.161
1.161
1.161
1.161
1.161
1.161
1.161
1.161
1.161
1.161
1.161
1.161
1.161
1.161
1.161
1.161
1.161
1.161
1.161
1.161
1.161
1.161
1.161
1.161
1.161
1.161
1.161
1.161
1.161
1.161
1.161
1.161
1.161
1.161
1.161
1.161
1.161
1.161
1.161
1.161
1.161
1.161
1.161
1.161
1.161
)
;

boundaryField
{
    wedge0
    {
        type            wedge;
    }
    wedge1
    {
        type            wedge;
    }
    wedge2
    {
        type            wedge;
    }
    wedge3
    {
        type            wedge;
    }
    outlet
    {
        type            zeroGradient;
    }
    defaultFaces
    {
        type            empty;
    }
}


// ************************************************************************* //
