/*--------------------------------*- C++ -*----------------------------------*\
| =========                 |                                                 |
| \\      /  F ield         | OpenFOAM: The Open Source CFD Toolbox           |
|  \\    /   O peration     | Version:  2312                                  |
|   \\  /    A nd           | Website:  www.openfoam.com                      |
|    \\/     M anipulation  |                                                 |
\*---------------------------------------------------------------------------*/
FoamFile
{
    version     2.0;
    format      ascii;
    arch        "LSB;label=32;scalar=64";
    class       volScalarField;
    location    "3e-05";
    object      T;
}
// * * * * * * * * * * * * * * * * * * * * * * * * * * * * * * * * * * * * * //

dimensions      [0 0 0 1 0 0 0];

internalField   nonuniform List<scalar> 
500
(
7.53355e+06
7.53235e+06
7.5299e+06
7.52591e+06
7.52009e+06
7.51207e+06
7.50153e+06
7.48811e+06
7.47147e+06
7.45127e+06
7.42718e+06
7.39887e+06
7.36602e+06
7.32833e+06
7.28549e+06
7.23722e+06
7.18325e+06
7.12332e+06
7.05718e+06
6.98463e+06
6.90544e+06
6.81944e+06
6.72647e+06
6.62639e+06
6.5191e+06
6.40451e+06
6.28257e+06
6.15326e+06
6.0166e+06
5.87262e+06
5.72142e+06
5.56313e+06
5.39791e+06
5.22596e+06
5.04756e+06
4.86299e+06
4.67261e+06
4.47681e+06
4.2761e+06
4.07085e+06
3.86462e+06
3.66251e+06
3.4666e+06
3.27778e+06
3.09623e+06
2.9219e+06
2.75478e+06
2.59477e+06
2.4418e+06
2.29574e+06
2.15648e+06
2.02386e+06
1.89775e+06
1.77796e+06
1.66432e+06
1.55666e+06
1.45478e+06
1.35849e+06
1.26759e+06
1.18188e+06
1.10116e+06
1.02522e+06
953862
886882
824078
765253
710209
658756
610706
565878
524093
485179
448971
415307
384035
355006
328079
303119
279998
258595
238794
220485
203564
187934
173502
160180
147889
136551
126095
116454
107569
99382.5
91842.3
84898.6
78504.9
72617.8
67197.5
62206.1
57609.9
53379.3
49485.4
45900.8
42599.6
39557.9
36753.4
34169.2
31787.9
29592
27564.8
25691.2
23960.7
22363.7
20887.7
19520.2
18252.8
17082.1
15998.5
14991.2
14055.9
13191.3
12387.7
11637.1
10942.9
10297.9
9690.52
9137.03
8602.27
8127.01
7654.85
7244.51
6830.1
6473.26
6107.25
5795.39
5471.2
5196.76
4909.9
4665.79
4414.19
4195.32
3979.18
3784.6
3599.23
3426.78
3265.11
3114.75
2976.81
2853.79
2743.51
2626.82
2481.17
2241.19
1694.71
560.474
306.063
300.094
300.002
300
300
300
300
300
300
300
300
300
300
300
300
300
300
300
300
300
300
300
300
300
300
300
300
300
300
300
300
300
300
300
300
300
300
300
300
300
300
300
300
300
300
300
300
300
300
300
300
300
300
300
300
300
300
300
300
300
300
300
300
300
300
300
300
300
300
300
300
300
300
300
300
300
300
300
300
300
300
300
300
300
300
300
300
300
300
300
300
300
300
300
300
300
300
300
300
300
300
300
300
300
300
300
300
300
300
300
300
300
300
300
300
300
300
300
300
300
300
300
300
300
300
300
300
300
300
300
300
300
300
300
300
300
300
300
300
300
300
300
300
300
300
300
300
300
300
300
300
300
300
300
300
300
300
300
300
300
300
300
300
300
300
300
300
300
300
300
300
300
300
300
300
300
300
300
300
300
300
300
300
300
300
300
300
300
300
300
300
300
300
300
300
300
300
300
300
300
300
300
300
300
300
300
300
300
300
300
300
300
300
300
300
300
300
300
300
300
300
300
300
300
300
300
300
300
300
300
300
300
300
300
300
300
300
300
300
300
300
300
300
300
300
300
300
300
300
300
300
300
300
300
300
300
300
300
300
300
300
300
300
300
300
300
300
300
300
300
300
300
300
300
300
300
300
300
300
300
300
300
300
300
300
300
300
300
300
300
300
300
300
300
300
300
300
300
300
300
300
300
300
300
300
300
300
300
300
300
300
300
300
300
300
300
300
300
300
300
300
300
300
300
300
300
300
300
300
300
300
300
300
300
300
300
300
300
300
300
300
300
300
300
300
300
)
;

boundaryField
{
    wedge0
    {
        type            wedge;
    }
    wedge1
    {
        type            wedge;
    }
    wedge2
    {
        type            wedge;
    }
    wedge3
    {
        type            wedge;
    }
    outlet
    {
        type            zeroGradient;
    }
    defaultFaces
    {
        type            empty;
    }
}


// ************************************************************************* //
