/*--------------------------------*- C++ -*----------------------------------*\
| =========                 |                                                 |
| \\      /  F ield         | OpenFOAM: The Open Source CFD Toolbox           |
|  \\    /   O peration     | Version:  2312                                  |
|   \\  /    A nd           | Website:  www.openfoam.com                      |
|    \\/     M anipulation  |                                                 |
\*---------------------------------------------------------------------------*/
FoamFile
{
    version     2.0;
    format      ascii;
    arch        "LSB;label=32;scalar=64";
    class       volScalarField;
    location    "3e-05";
    object      thermo:e;
}
// * * * * * * * * * * * * * * * * * * * * * * * * * * * * * * * * * * * * * //

dimensions      [0 2 -2 0 0 0 0];

internalField   nonuniform List<scalar> 
500
(
5.40683e+09
5.40597e+09
5.40421e+09
5.40135e+09
5.39717e+09
5.39142e+09
5.38385e+09
5.37422e+09
5.36227e+09
5.34778e+09
5.33049e+09
5.31017e+09
5.28659e+09
5.25954e+09
5.22879e+09
5.19415e+09
5.15542e+09
5.11241e+09
5.06494e+09
5.01287e+09
4.95603e+09
4.89431e+09
4.82759e+09
4.75576e+09
4.67876e+09
4.59652e+09
4.509e+09
4.4162e+09
4.31811e+09
4.21478e+09
4.10627e+09
3.99266e+09
3.87408e+09
3.75068e+09
3.62263e+09
3.49017e+09
3.35353e+09
3.21301e+09
3.06896e+09
2.92165e+09
2.77364e+09
2.62858e+09
2.48798e+09
2.35247e+09
2.22216e+09
2.09705e+09
1.9771e+09
1.86227e+09
1.75248e+09
1.64765e+09
1.5477e+09
1.45253e+09
1.36201e+09
1.27604e+09
1.19448e+09
1.11721e+09
1.04409e+09
9.74986e+08
9.09748e+08
8.48234e+08
7.90301e+08
7.358e+08
6.84587e+08
6.36515e+08
5.91441e+08
5.49222e+08
5.09717e+08
4.72789e+08
4.38304e+08
4.06131e+08
3.76141e+08
3.48213e+08
3.22226e+08
2.98066e+08
2.75622e+08
2.54787e+08
2.35462e+08
2.17548e+08
2.00955e+08
1.85593e+08
1.71382e+08
1.58242e+08
1.46098e+08
1.3488e+08
1.24522e+08
1.14961e+08
1.0614e+08
9.80024e+07
9.04982e+07
8.35793e+07
7.72021e+07
7.13268e+07
6.59152e+07
6.09318e+07
5.6343e+07
5.21178e+07
4.82277e+07
4.46453e+07
4.13467e+07
3.83103e+07
3.55157e+07
3.2943e+07
3.05737e+07
2.83907e+07
2.63779e+07
2.45233e+07
2.28142e+07
2.12382e+07
1.97833e+07
1.84386e+07
1.71966e+07
1.60504e+07
1.49911e+07
1.40096e+07
1.31e+07
1.22599e+07
1.14821e+07
1.07592e+07
1.00879e+07
9.46739e+06
8.89068e+06
8.35196e+06
7.8537e+06
7.39082e+06
6.95489e+06
6.55764e+06
6.17385e+06
5.83276e+06
5.49389e+06
5.19939e+06
4.90196e+06
4.64586e+06
4.38317e+06
4.15935e+06
3.92668e+06
3.72971e+06
3.52383e+06
3.34864e+06
3.16807e+06
3.01098e+06
2.85586e+06
2.71621e+06
2.58317e+06
2.4594e+06
2.34337e+06
2.23545e+06
2.13645e+06
2.04816e+06
1.96901e+06
1.88527e+06
1.78073e+06
1.6085e+06
1.21629e+06
402252
219662
215377
215311
215310
215310
215310
215310
215310
215310
215310
215310
215310
215310
215310
215310
215310
215310
215310
215310
215310
215310
215310
215310
215310
215310
215310
215310
215310
215310
215310
215310
215310
215310
215310
215310
215310
215310
215310
215310
215310
215310
215310
215310
215310
215310
215310
215310
215310
215310
215310
215310
215310
215310
215310
215310
215310
215310
215310
215310
215310
215310
215310
215310
215310
215310
215310
215310
215310
215310
215310
215310
215310
215310
215310
215310
215310
215310
215310
215310
215310
215310
215310
215310
215310
215310
215310
215310
215310
215310
215310
215310
215310
215310
215310
215310
215310
215310
215310
215310
215310
215310
215310
215310
215310
215310
215310
215310
215310
215310
215310
215310
215310
215310
215310
215310
215310
215310
215310
215310
215310
215310
215310
215310
215310
215310
215310
215310
215310
215310
215310
215310
215310
215310
215310
215310
215310
215310
215310
215310
215310
215310
215310
215310
215310
215310
215310
215310
215310
215310
215310
215310
215310
215310
215310
215310
215310
215310
215310
215310
215310
215310
215310
215310
215310
215310
215310
215310
215310
215310
215310
215310
215310
215310
215310
215310
215310
215310
215310
215310
215310
215310
215310
215310
215310
215310
215310
215310
215310
215310
215310
215310
215310
215310
215310
215310
215310
215310
215310
215310
215310
215310
215310
215310
215310
215310
215310
215310
215310
215310
215310
215310
215310
215310
215310
215310
215310
215310
215310
215310
215310
215310
215310
215310
215310
215310
215310
215310
215310
215310
215310
215310
215310
215310
215310
215310
215310
215310
215310
215310
215310
215310
215310
215310
215310
215310
215310
215310
215310
215310
215310
215310
215310
215310
215310
215310
215310
215310
215310
215310
215310
215310
215310
215310
215310
215310
215310
215310
215310
215310
215310
215310
215310
215310
215310
215310
215310
215310
215310
215310
215310
215310
215310
215310
215310
215310
215310
215310
215310
215310
215310
215310
215310
215310
215310
215310
215310
215310
215310
215310
215310
215310
215310
215310
215310
215310
215310
215310
215310
215310
215310
215310
215310
215310
215310
215310
215310
215310
215310
215310
215310
215310
215310
215310
215310
215310
215310
215310
215310
215310
215310
215310
215310
215310
215310
215310
215310
215310
215310
215310
215310
215310
215310
215310
215310
215310
215310
)
;

boundaryField
{
    wedge0
    {
        type            wedge;
    }
    wedge1
    {
        type            wedge;
    }
    wedge2
    {
        type            wedge;
    }
    wedge3
    {
        type            wedge;
    }
    outlet
    {
        type            zeroGradient;
    }
    defaultFaces
    {
        type            empty;
    }
}


// ************************************************************************* //
