/*--------------------------------*- C++ -*----------------------------------*\
| =========                 |                                                 |
| \\      /  F ield         | OpenFOAM: The Open Source CFD Toolbox           |
|  \\    /   O peration     | Version:  2312                                  |
|   \\  /    A nd           | Website:  www.openfoam.com                      |
|    \\/     M anipulation  |                                                 |
\*---------------------------------------------------------------------------*/
FoamFile
{
    version     2.0;
    format      ascii;
    arch        "LSB;label=32;scalar=64";
    class       volVectorField;
    location    "3e-05";
    object      U;
}
// * * * * * * * * * * * * * * * * * * * * * * * * * * * * * * * * * * * * * //

dimensions      [0 1 -1 0 0 0 0];

internalField   nonuniform List<vector> 
500
(
(7.37189 -9.46697e-09 1.02009e-08)
(14.9919 -1.00134e-08 1.07495e-08)
(23.5178 -1.07266e-08 1.14658e-08)
(32.2694 -1.13142e-08 1.20406e-08)
(41.1176 -1.06763e-08 1.13615e-08)
(50.0264 -1.11548e-08 1.18148e-08)
(58.983 -1.15366e-08 1.21464e-08)
(67.9763 -1.22685e-08 1.28435e-08)
(77.0042 -1.20792e-08 1.26322e-08)
(86.0798 -1.12267e-08 1.17655e-08)
(95.185 -1.0364e-08 1.0903e-08)
(104.324 -9.27984e-09 9.82135e-09)
(113.494 -8.31717e-09 8.78365e-09)
(122.697 -7.15433e-09 7.55662e-09)
(131.935 -5.77598e-09 6.13035e-09)
(141.213 -4.16868e-09 4.48055e-09)
(150.547 -2.31665e-09 2.58084e-09)
(159.947 -1.25904e-09 1.47293e-09)
(169.428 -3.73651e-10 5.01825e-10)
(178.989 -1.47962e-10 2.61459e-10)
(188.63 -1.22667e-10 2.3837e-10)
(198.352 -5.24132e-11 2.36551e-10)
(208.157 -2.78315e-10 5.35556e-10)
(218.047 -7.31791e-10 9.24097e-10)
(228.028 -9.47544e-10 1.09136e-09)
(238.111 -9.2441e-10 1.01916e-09)
(248.308 -1.01079e-09 1.15975e-09)
(258.63 -1.39972e-09 1.53158e-09)
(269.083 -1.16242e-09 1.29187e-09)
(279.678 -1.04645e-09 1.15421e-09)
(290.426 -9.77013e-10 1.06572e-09)
(301.343 -1.16753e-09 1.23405e-09)
(312.448 -9.00552e-10 9.38364e-10)
(323.759 -7.5665e-10 7.58526e-10)
(335.292 -7.24384e-10 7.24439e-10)
(347.062 -7.47585e-10 7.47586e-10)
(359.124 -7.3258e-10 7.32581e-10)
(371.31 -7.92556e-10 7.92556e-10)
(383.635 -8.23309e-10 8.23309e-10)
(393.305 -8.49024e-10 8.49024e-10)
(396.309 -8.92542e-10 8.92542e-10)
(398.341 -8.37258e-10 8.37258e-10)
(404.541 -8.31319e-10 8.31319e-10)
(412.853 -8.06466e-10 8.06466e-10)
(421.551 -6.93267e-10 6.93267e-10)
(430.525 -7.28887e-10 7.28887e-10)
(439.489 -5.33437e-10 5.33437e-10)
(448.52 -5.84279e-10 5.84279e-10)
(457.559 -4.16134e-10 4.16134e-10)
(466.613 -2.99237e-10 2.99237e-10)
(475.675 -3.29439e-10 3.29439e-10)
(484.739 -2.79962e-10 2.79962e-10)
(493.801 -2.34259e-10 2.34259e-10)
(502.854 -1.68254e-10 1.68254e-10)
(511.891 -1.40771e-10 1.40771e-10)
(520.905 -9.18159e-11 9.18159e-11)
(529.889 -9.67979e-11 9.67979e-11)
(538.836 -6.52353e-11 6.52353e-11)
(547.734 -8.99861e-11 8.99861e-11)
(556.59 1.79565e-12 -1.79565e-12)
(565.404 -1.68553e-12 1.68553e-12)
(574.186 1.66204e-12 -1.66204e-12)
(582.958 1.70861e-12 -1.70861e-12)
(591.713 1.61469e-12 -1.61469e-12)
(600.509 0 6.91041e-32)
(609.304 7.66102e-12 -7.66102e-12)
(618.185 -7.68676e-12 7.68676e-12)
(627.068 2.45339e-11 -2.45339e-11)
(636.067 1.49523e-11 -1.49523e-11)
(645.067 7.36074e-12 -7.36074e-12)
(654.167 7.25384e-12 -7.25384e-12)
(663.302 2.38332e-12 -2.38332e-12)
(672.493 8.07558e-13 -8.07558e-13)
(681.748 1.15937e-12 -1.15937e-12)
(691.015 -7.58388e-12 7.58388e-12)
(700.342 1.34771e-11 -1.34771e-11)
(709.669 7.84417e-12 -7.84417e-12)
(719.028 5.9485e-12 -5.9485e-12)
(728.351 5.54753e-12 -5.54753e-12)
(737.62 5.25382e-13 -5.25768e-13)
(746.788 4.47272e-12 -4.47308e-12)
(755.866 -6.738e-13 6.73818e-13)
(764.891 9.42384e-12 -9.4671e-12)
(773.95 4.23545e-12 -4.13685e-12)
(783.038 4.45069e-12 -5.9396e-12)
(792.28 3.33453e-15 2.38292e-12)
(801.56 4.67248e-13 -2.99889e-12)
(810.982 -2.91262e-12 2.91243e-12)
(820.46 -3.47504e-12 3.36312e-12)
(830.034 -2.13627e-13 3.48686e-13)
(839.631 -1.51768e-12 1.02088e-12)
(849.088 -2.81598e-12 2.81564e-12)
(858.372 -1.78694e-13 5.8372e-14)
(867.576 -1.47562e-12 1.97512e-12)
(876.785 -1.25756e-12 1.25511e-12)
(886.126 -4.3635e-13 4.22131e-13)
(895.615 -8.75585e-13 8.70027e-13)
(905.344 -4.58123e-13 4.58014e-13)
(915.209 -1.03269e-12 1.0324e-12)
(924.956 1.875e-13 -1.87569e-13)
(934.439 -1.23103e-13 1.2303e-13)
(943.831 1.85561e-13 -1.42144e-13)
(953.338 -2.21271e-13 1.99677e-13)
(963.093 3.21498e-13 -3.215e-13)
(973.253 -5.51522e-13 3.33801e-13)
(983.383 9.87957e-13 -9.31119e-13)
(993.138 -1.70824e-13 1.68849e-13)
(1002.8 4.64479e-13 -4.12771e-13)
(1012.68 -5.60391e-15 2.05851e-13)
(1023.1 1.11325e-13 -3.12968e-13)
(1033.66 -3.14439e-13 1.91641e-13)
(1043.66 3.40178e-13 -3.87037e-13)
(1053.67 1.92318e-13 -3.08656e-13)
(1064.21 9.88918e-14 -1.2484e-13)
(1075.33 2.87755e-13 -3.03201e-13)
(1085.79 4.91981e-13 -5.16516e-13)
(1096.14 8.22052e-13 -8.34334e-13)
(1107.27 5.63642e-13 -5.70795e-13)
(1118.9 6.4572e-13 -6.53136e-13)
(1129.52 6.51778e-13 -6.45966e-13)
(1140.71 4.00725e-13 -4.11521e-13)
(1153.07 5.612e-13 -5.7357e-13)
(1164.3 5.45031e-13 -5.51126e-13)
(1175.96 4.72941e-13 -4.78799e-13)
(1189.39 3.61091e-13 -3.59194e-13)
(1200.57 3.36962e-13 -3.35886e-13)
(1215.59 3.11823e-13 -3.10892e-13)
(1226.24 2.38296e-13 -2.37401e-13)
(1242.97 1.89948e-13 -1.90075e-13)
(1253.06 1.40666e-13 -1.40745e-13)
(1271.26 1.24705e-13 -1.24832e-13)
(1281.21 1.6047e-13 -1.60585e-13)
(1300.97 1.589e-13 -1.59004e-13)
(1310.86 7.36392e-14 -7.36928e-14)
(1331.77 1.0313e-13 -1.03259e-13)
(1342.09 -6.13884e-14 6.1258e-14)
(1363.06 2.22633e-14 -2.24269e-14)
(1374.77 1.36408e-14 -1.37299e-14)
(1394.66 6.85836e-15 -6.84895e-15)
(1408.65 7.60576e-15 -7.83687e-15)
(1427.39 -2.6716e-14 2.68207e-14)
(1444.54 1.24465e-14 -1.21547e-14)
(1463.46 -3.57229e-14 3.65563e-14)
(1482.7 -3.84184e-14 3.85129e-14)
(1502.66 -2.96804e-14 2.97708e-14)
(1523.45 -2.23975e-14 2.24835e-14)
(1546.06 -1.31379e-14 1.31379e-14)
(1573.97 -2.49339e-15 2.49339e-15)
(1611.85 -2.22841e-16 2.22841e-16)
(1624.93 1.26918e-14 -1.26918e-14)
(1603.52 8.93024e-15 -8.93024e-15)
(1476.62 -4.14457e-15 4.14457e-15)
(1021.72 -3.09508e-15 3.09508e-15)
(201.551 6.9808e-15 -6.97748e-15)
(8.5514 -5.63106e-15 5.6377e-15)
(0.19346 -6.89179e-17 7.85803e-17)
(0.00420496 -1.48441e-15 1.49939e-15)
(9.1176e-05 -1.66979e-14 1.67165e-14)
(1.97143e-06 -1.28382e-14 1.28645e-14)
(4.2427e-08 -2.68711e-14 2.6904e-14)
(8.92512e-10 -2.64467e-14 2.64694e-14)
(9.14209e-12 -1.33126e-14 1.33264e-14)
(-7.76818e-12 -1.54319e-14 1.54411e-14)
(-2.98845e-12 -3.3274e-14 3.32781e-14)
(1.16028e-11 -1.25664e-14 1.2567e-14)
(1.58898e-11 -6.73549e-16 6.73549e-16)
(1.21318e-11 0 0)
(1.13347e-11 1.96566e-14 -1.96566e-14)
(-9.49901e-12 0 0)
(-4.37285e-14 0 0)
(7.60199e-12 0 0)
(-2.20397e-13 -6.03036e-15 6.01314e-15)
(1.56725e-13 -1.38806e-15 1.33601e-15)
(9.44607e-14 -6.15291e-15 6.13616e-15)
(-2.5981e-12 -1.39662e-14 1.39539e-14)
(-4.44066e-13 -1.43031e-14 1.42955e-14)
(-6.13051e-12 -7.33921e-15 7.33593e-15)
(-1.73634e-12 -5.22987e-16 5.21519e-16)
(1.4568e-11 3.47743e-16 -3.48737e-16)
(-1.89015e-12 8.26336e-15 -8.26436e-15)
(-9.54766e-12 9.11456e-15 -9.11505e-15)
(-4.43718e-12 2.10376e-15 -2.10376e-15)
(-2.9642e-13 0 0)
(-8.31681e-12 0 0)
(1.37176e-11 0 0)
(2.17067e-11 0 0)
(6.40745e-12 0 0)
(-1.37899e-11 0 0)
(-1.15647e-11 0 0)
(-2.81362e-12 1.40742e-15 -1.40742e-15)
(4.07875e-13 8.28252e-15 -8.28252e-15)
(-1.00591e-12 1.01818e-15 -1.01818e-15)
(-4.28554e-12 0 0)
(7.74813e-14 -2.12345e-15 2.12345e-15)
(2.32464e-13 3.87501e-15 -3.87501e-15)
(-3.02188e-13 0 0)
(2.92872e-12 -6.50775e-15 6.50775e-15)
(-7.35574e-12 0 0)
(-1.04877e-11 2.52732e-15 -2.52019e-15)
(-8.06455e-12 8.50113e-15 -8.48941e-15)
(-8.28367e-12 8.76437e-15 -8.74807e-15)
(-2.16919e-12 3.42131e-15 -3.40905e-15)
(4.26601e-12 0 0)
(4.71012e-12 -3.97791e-15 3.97791e-15)
(2.89197e-11 -9.71891e-15 9.71891e-15)
(2.72267e-11 -1.04677e-14 1.04677e-14)
(2.21249e-12 -5.16235e-15 5.16235e-15)
(-1.09032e-11 -6.25075e-15 6.25075e-15)
(-1.75131e-11 5.10342e-16 -5.10342e-16)
(-1.00479e-11 0 0)
(1.64773e-11 0 0)
(2.60476e-11 -4.42125e-15 4.42125e-15)
(-3.38981e-12 -1.16431e-14 1.16431e-14)
(-5.02637e-11 -1.38158e-14 1.38158e-14)
(-3.31386e-11 -2.51163e-14 2.51163e-14)
(2.50419e-12 -2.91577e-14 2.91577e-14)
(-1.71133e-11 -2.33236e-14 2.33236e-14)
(2.04039e-11 -3.34824e-15 3.34824e-15)
(3.70315e-11 0 0)
(4.19687e-11 0 0)
(5.32097e-12 0 0)
(-1.80563e-11 0 0)
(1.58842e-11 2.72819e-16 -2.72819e-16)
(3.63576e-12 5.27043e-15 -5.27043e-15)
(-6.78402e-12 1.37371e-14 -1.37371e-14)
(-9.98647e-12 1.6353e-15 -1.6353e-15)
(1.95905e-12 -5.76066e-15 5.76066e-15)
(4.36462e-12 -2.10452e-14 2.10452e-14)
(9.34886e-12 -1.63186e-14 1.63186e-14)
(-9.29967e-12 -1.93251e-14 1.93251e-14)
(-2.17935e-11 -2.3667e-14 2.3667e-14)
(-1.64295e-11 -1.35851e-14 1.35851e-14)
(1.14847e-11 -2.75279e-16 2.75279e-16)
(9.28088e-12 0 0)
(-2.6328e-12 0 0)
(-8.1255e-12 0 0)
(-1.40764e-11 0 0)
(5.55052e-12 0 0)
(-7.39557e-14 0 0)
(-2.51094e-12 -6.56656e-15 6.56656e-15)
(2.0017e-11 -1.37897e-14 1.37897e-14)
(1.73599e-11 -4.62162e-15 4.62162e-15)
(-5.88094e-14 2.38234e-15 -2.38234e-15)
(-8.68935e-12 1.96646e-14 -1.96646e-14)
(9.65343e-13 2.54158e-14 -2.54158e-14)
(1.17641e-11 2.03015e-14 -2.03015e-14)
(9.60572e-12 -4.28235e-16 4.28235e-16)
(-9.61622e-12 6.358e-17 -6.358e-17)
(-1.37014e-11 2.61025e-15 -2.61025e-15)
(2.21932e-13 -5.80715e-15 5.80715e-15)
(-3.0483e-13 -8.02135e-16 8.02135e-16)
(1.68898e-12 0 0)
(1.73506e-11 0 0)
(1.10469e-11 0 0)
(-2.03233e-11 0 0)
(-3.16656e-11 0 0)
(-2.25349e-11 -2.71874e-15 2.71874e-15)
(7.61545e-12 -1.34074e-14 1.34074e-14)
(2.81976e-12 -2.51002e-15 2.51002e-15)
(-7.59044e-12 0 0)
(-2.32396e-12 0 0)
(4.49971e-12 0 0)
(-2.07912e-12 1.72106e-15 -1.72106e-15)
(7.06371e-12 9.67726e-15 -9.67726e-15)
(9.86227e-12 1.94909e-14 -1.94909e-14)
(-7.50684e-12 1.64559e-14 -1.64559e-14)
(-2.44623e-12 1.93006e-14 -1.93006e-14)
(5.86832e-12 1.10626e-14 -1.10626e-14)
(6.10975e-12 1.82817e-15 -1.82817e-15)
(3.88199e-12 0 0)
(-2.49081e-12 0 0)
(3.75885e-12 0 0)
(1.31488e-11 0 0)
(-1.49441e-11 -1.26763e-15 1.26763e-15)
(-1.94626e-11 -4.85191e-15 4.85191e-15)
(-8.71426e-12 -1.0278e-14 1.0278e-14)
(4.53669e-12 -2.2833e-15 2.2833e-15)
(8.78798e-12 0 0)
(5.4063e-12 0 0)
(4.71144e-12 0 0)
(4.51822e-12 2.08181e-15 -2.08181e-15)
(3.22555e-12 5.10561e-15 -5.10561e-15)
(5.4141e-12 1.27363e-14 -1.27363e-14)
(1.99383e-11 9.41324e-15 -9.41324e-15)
(-2.21217e-11 -1.22704e-14 1.22704e-14)
(-3.0751e-11 -4.88407e-15 4.88407e-15)
(-1.38819e-12 -1.0567e-15 1.0567e-15)
(2.18789e-11 0 0)
(1.07479e-11 -4.04169e-15 4.04169e-15)
(-1.48438e-12 0 0)
(-3.04219e-12 0 0)
(-8.73228e-12 2.78807e-15 -2.78807e-15)
(-9.52983e-12 -3.16586e-15 3.16586e-15)
(-9.28045e-12 0 0)
(-1.07026e-11 1.22327e-15 -1.22327e-15)
(7.56861e-12 3.55325e-15 -3.55325e-15)
(1.17719e-11 -2.17987e-15 2.17987e-15)
(6.59742e-12 -2.23913e-16 2.23913e-16)
(6.03813e-12 0 0)
(-5.19505e-13 -1.03035e-16 1.03035e-16)
(-8.70751e-12 -2.21251e-15 2.21251e-15)
(-4.37311e-12 1.15617e-15 -1.15617e-15)
(2.16829e-12 -2.90485e-15 2.90485e-15)
(-8.15168e-12 0 0)
(6.74036e-12 2.43795e-15 -2.43795e-15)
(1.38128e-11 0 0)
(7.45588e-12 0 0)
(3.9759e-12 -3.98361e-15 3.98361e-15)
(-7.15913e-12 -1.11836e-14 1.11836e-14)
(-8.39401e-12 -1.08415e-14 1.08415e-14)
(-6.24559e-12 -2.31946e-15 2.31946e-15)
(6.03908e-12 0 0)
(2.39764e-11 0 0)
(3.99717e-12 0 0)
(-5.70856e-12 3.19948e-15 -3.19948e-15)
(1.21971e-11 0 0)
(2.78928e-12 0 0)
(-7.53717e-12 -2.07788e-15 2.07788e-15)
(-1.85685e-12 -8.61241e-15 8.61241e-15)
(9.11247e-12 -1.90355e-14 1.90355e-14)
(5.74489e-12 -2.49787e-14 2.49787e-14)
(-1.10416e-11 -2.64986e-14 2.64986e-14)
(-9.75346e-13 -2.37214e-14 2.37214e-14)
(2.50053e-12 -2.52948e-14 2.52948e-14)
(2.35537e-12 -1.98041e-14 1.98041e-14)
(1.50819e-12 -8.67494e-15 8.67494e-15)
(-2.19867e-12 -1.54445e-15 1.54445e-15)
(-9.54604e-12 0 0)
(-1.69556e-12 2.09481e-15 -2.09481e-15)
(1.52472e-11 0 0)
(6.82039e-12 0 0)
(-9.00958e-12 0 0)
(-9.74188e-12 -1.7122e-15 1.7122e-15)
(-5.75911e-12 -6.64047e-15 6.64047e-15)
(-1.71606e-11 -7.48688e-15 7.48688e-15)
(-1.47593e-11 -1.10698e-15 1.10698e-15)
(8.89419e-12 0 0)
(2.20348e-11 0 0)
(2.14147e-11 0 0)
(-1.15412e-11 0 0)
(-3.12119e-11 -9.92158e-18 9.92158e-18)
(-2.65211e-11 -7.40104e-15 7.40104e-15)
(1.90581e-11 0 0)
(7.891e-12 0 0)
(2.76608e-12 4.95005e-15 -4.95005e-15)
(9.81399e-12 2.27762e-15 -2.27762e-15)
(1.71223e-11 4.33868e-15 -4.33868e-15)
(1.30667e-11 0 0)
(-5.07018e-12 -5.72077e-15 5.72077e-15)
(-2.07461e-12 -4.04441e-15 4.04441e-15)
(-7.15989e-12 -9.76191e-15 9.76191e-15)
(-1.62521e-11 -8.82894e-15 8.82894e-15)
(-1.10014e-11 -1.63842e-15 1.63842e-15)
(3.59301e-12 0 0)
(1.2064e-11 0 0)
(1.06562e-11 3.13031e-15 -3.13031e-15)
(-9.52357e-12 0 0)
(-1.49359e-11 -8.63062e-15 8.63062e-15)
(-2.31276e-11 -9.59587e-15 9.59587e-15)
(-1.91889e-11 -4.08741e-15 4.08741e-15)
(1.17287e-11 -5.90277e-15 5.90277e-15)
(5.81084e-12 -4.63806e-16 4.63806e-16)
(1.50855e-11 0 0)
(1.6335e-11 -2.28346e-15 2.28346e-15)
(2.80217e-12 8.87587e-18 -8.87587e-18)
(1.86686e-12 -2.25053e-15 2.25053e-15)
(5.67274e-12 0 0)
(2.23782e-12 2.35642e-15 -2.35642e-15)
(-8.28776e-13 0 0)
(-2.63902e-12 0 0)
(-5.5161e-12 -1.62842e-15 1.62842e-15)
(-3.21485e-12 -8.10781e-15 8.10781e-15)
(8.57621e-13 -1.08606e-14 1.08606e-14)
(1.10334e-11 -1.52042e-14 1.52042e-14)
(7.74574e-12 -1.70496e-14 1.70496e-14)
(-3.06e-12 -1.28049e-14 1.28049e-14)
(5.96496e-12 -5.14867e-15 5.14867e-15)
(7.22176e-12 0 0)
(-3.00505e-12 0 0)
(-1.43863e-11 2.88083e-15 -2.88083e-15)
(-1.66632e-11 1.33235e-15 -1.33235e-15)
(-1.50588e-11 4.11105e-15 -4.11105e-15)
(1.12147e-11 1.50944e-16 -1.50944e-16)
(1.93101e-11 0 0)
(-2.43405e-11 -3.319e-15 3.319e-15)
(-2.40774e-11 0 0)
(-1.34063e-11 0 0)
(-2.07775e-12 9.8909e-16 -9.8909e-16)
(1.42825e-11 5.92374e-15 -5.92374e-15)
(1.88641e-11 6.03221e-15 -6.03221e-15)
(1.86588e-11 3.11456e-15 -3.11456e-15)
(2.06311e-11 1.55137e-16 -1.55137e-16)
(1.19056e-11 0 0)
(-5.53235e-13 2.91778e-15 -2.91778e-15)
(-3.88835e-14 0 0)
(-1.22632e-11 0 0)
(-2.95918e-11 0 0)
(-1.36925e-11 0 0)
(1.35167e-11 0 0)
(1.0775e-11 0 0)
(2.81761e-13 0 0)
(-7.06359e-12 0 0)
(2.26893e-11 4.53584e-16 -4.53584e-16)
(3.13922e-11 6.73073e-15 -6.73073e-15)
(1.34995e-12 1.26641e-14 -1.26641e-14)
(-3.8083e-12 1.65266e-14 -1.65266e-14)
(-5.30449e-13 1.76271e-14 -1.76271e-14)
(-1.22795e-11 1.05357e-14 -1.05357e-14)
(-1.14929e-11 1.84596e-15 -1.84596e-15)
(-8.94669e-12 -8.72628e-16 8.72628e-16)
(-9.2268e-12 0 0)
(-9.44788e-12 0 0)
(5.77058e-12 0 0)
(8.52484e-12 0 0)
(-1.76854e-11 0 0)
(-9.82091e-12 0 0)
(-4.03182e-12 0 0)
(-6.90567e-12 0 0)
(-1.21586e-11 -9.07734e-16 9.07734e-16)
(-7.32012e-12 1.51391e-15 -1.51391e-15)
(-2.49786e-12 0 0)
(5.83599e-12 -1.30971e-15 1.30971e-15)
(4.09778e-12 -3.80722e-15 3.80722e-15)
(7.98009e-12 -3.72589e-15 3.72589e-15)
(3.69868e-11 -4.79382e-15 4.79382e-15)
(2.81108e-11 -3.33412e-15 3.33412e-15)
(-2.86503e-11 -7.06966e-15 7.06966e-15)
(-2.06889e-11 -4.2804e-15 4.2804e-15)
(1.64134e-11 -3.07221e-15 3.07221e-15)
(-8.5455e-12 1.23254e-15 -1.23254e-15)
(-1.08226e-11 1.3425e-15 -1.3425e-15)
(-5.59138e-14 2.38572e-15 -2.38572e-15)
(1.5107e-11 1.00157e-15 -1.00157e-15)
(-5.3119e-13 2.03528e-15 -2.03528e-15)
(-1.07513e-11 6.64279e-16 -6.64279e-16)
(5.94753e-12 1.58627e-15 -1.58627e-15)
(1.97184e-11 -1.33667e-15 1.33667e-15)
(3.11468e-11 -1.90232e-17 1.90232e-17)
(4.36975e-12 -6.25959e-16 6.25959e-16)
(-4.99746e-12 -5.72941e-15 5.72941e-15)
(-5.27739e-12 -1.60243e-14 1.60243e-14)
(-3.49838e-11 -1.50087e-14 1.50087e-14)
(-3.55558e-11 7.6012e-16 -7.6012e-16)
(-1.26029e-11 1.01153e-14 -1.01153e-14)
(-5.83802e-12 1.39757e-14 -1.39757e-14)
(1.11367e-11 5.81543e-15 -5.81543e-15)
(2.35171e-11 2.53561e-15 -2.53561e-15)
(2.11528e-11 5.61258e-16 -5.61258e-16)
(1.38949e-11 2.25886e-15 -2.25886e-15)
(7.98239e-12 8.41562e-15 -8.41562e-15)
(1.06688e-12 1.70222e-15 -1.70222e-15)
(-1.86375e-12 -9.89738e-16 9.89738e-16)
(-4.00187e-12 -8.07216e-15 8.07216e-15)
(-6.00186e-12 -3.00899e-15 3.00899e-15)
(-4.29093e-12 -5.5667e-16 5.5667e-16)
(5.6716e-12 -3.99158e-17 3.99158e-17)
(7.76943e-12 -2.54487e-15 2.54487e-15)
(5.33993e-12 -8.81063e-15 8.81063e-15)
(2.44713e-12 -2.07804e-14 2.07804e-14)
(-6.30243e-12 -2.38001e-14 2.38001e-14)
(-2.72103e-12 -2.46706e-14 2.46706e-14)
(1.61585e-13 -1.93174e-14 1.93174e-14)
(8.48447e-13 -9.40634e-15 9.40634e-15)
(-5.63419e-12 -2.23671e-15 2.23671e-15)
(-1.35722e-11 0 0)
(-1.25676e-11 0 0)
(-1.37542e-12 0 0)
(1.54209e-11 0 0)
(6.6832e-12 0 0)
(-8.81109e-12 0 0)
(-3.39942e-12 0 0)
(1.49466e-11 1.54762e-15 -1.54762e-15)
(1.05751e-11 6.08042e-15 -6.08042e-15)
(4.04178e-12 -7.30871e-16 7.30871e-16)
(-2.85635e-12 -1.26662e-14 1.26662e-14)
(1.03881e-12 -1.06633e-14 1.06633e-14)
(1.36685e-11 -1.16607e-14 1.16607e-14)
(8.72151e-12 -4.38781e-15 4.38781e-15)
(-9.87383e-13 1.22612e-15 -1.22612e-15)
(-2.03077e-11 6.68349e-15 -6.68349e-15)
(-2.76333e-11 1.37223e-15 -1.37223e-15)
(-1.30241e-11 0 0)
(1.69399e-11 0 0)
(2.38325e-11 0 0)
(6.23386e-12 -6.44651e-16 6.44651e-16)
(-1.25673e-11 -4.02221e-15 4.02221e-15)
(-1.49967e-11 2.55671e-15 -2.55671e-15)
(-6.14416e-12 0 0)
(-4.51977e-12 -7.97074e-15 7.97074e-15)
(-7.41366e-12 -1.38331e-14 1.38331e-14)
(-1.7794e-12 -1.53229e-14 1.53229e-14)
(7.38363e-14 -1.29532e-14 1.29532e-14)
(5.60813e-12 -6.90361e-15 6.90361e-15)
(2.47437e-12 -2.73821e-15 2.73821e-15)
(-2.89851e-12 -4.42036e-16 4.42036e-16)
(-4.84958e-13 0 0)
(1.01447e-11 -2.54e-15 2.54e-15)
(2.72075e-11 -5.97573e-15 5.97573e-15)
(2.87897e-11 -8.59562e-16 8.59562e-16)
(2.15266e-11 0 0)
)
;

boundaryField
{
    wedge0
    {
        type            wedge;
    }
    wedge1
    {
        type            wedge;
    }
    wedge2
    {
        type            wedge;
    }
    wedge3
    {
        type            wedge;
    }
    outlet
    {
        type            zeroGradient;
    }
    defaultFaces
    {
        type            empty;
    }
}


// ************************************************************************* //
