/*--------------------------------*- C++ -*----------------------------------*\
| =========                 |                                                 |
| \\      /  F ield         | OpenFOAM: The Open Source CFD Toolbox           |
|  \\    /   O peration     | Version:  2312                                  |
|   \\  /    A nd           | Website:  www.openfoam.com                      |
|    \\/     M anipulation  |                                                 |
\*---------------------------------------------------------------------------*/
FoamFile
{
    version     2.0;
    format      ascii;
    arch        "LSB;label=32;scalar=64";
    class       volScalarField;
    location    "0.0008";
    object      thermo:e;
}
// * * * * * * * * * * * * * * * * * * * * * * * * * * * * * * * * * * * * * //

dimensions      [0 2 -2 0 0 0 0];

internalField   nonuniform List<scalar> 
100
(
4.50083e+10
4.50321e+10
4.50733e+10
4.51267e+10
4.51885e+10
4.52555e+10
4.53254e+10
4.53963e+10
4.54668e+10
4.55361e+10
4.56032e+10
4.56678e+10
4.57294e+10
4.57879e+10
4.58431e+10
4.58949e+10
4.59435e+10
4.59888e+10
4.6031e+10
4.60701e+10
4.61063e+10
4.61398e+10
4.61707e+10
4.61992e+10
4.62253e+10
4.62493e+10
4.62712e+10
4.62913e+10
4.63097e+10
4.63264e+10
4.63417e+10
4.63556e+10
4.63682e+10
4.63796e+10
4.639e+10
4.63994e+10
4.64079e+10
4.64156e+10
4.64225e+10
4.64287e+10
4.64343e+10
4.64394e+10
4.64439e+10
4.64479e+10
4.64516e+10
4.64548e+10
4.64577e+10
4.64603e+10
4.64626e+10
4.64647e+10
4.64665e+10
4.64681e+10
4.64695e+10
4.64708e+10
4.64719e+10
4.64729e+10
4.64738e+10
4.64745e+10
4.64752e+10
4.64758e+10
4.64763e+10
4.64768e+10
4.64772e+10
4.64775e+10
4.64778e+10
4.64781e+10
4.64783e+10
4.64785e+10
4.64787e+10
4.64788e+10
4.6479e+10
4.64791e+10
4.64792e+10
4.64792e+10
4.64793e+10
4.64794e+10
4.64794e+10
4.64795e+10
4.64795e+10
4.64795e+10
4.64795e+10
4.64796e+10
4.64796e+10
4.64796e+10
4.64796e+10
4.64796e+10
4.64796e+10
4.64796e+10
4.64796e+10
4.64796e+10
4.64796e+10
4.64796e+10
4.64796e+10
4.64796e+10
4.64796e+10
4.64796e+10
4.64796e+10
4.64796e+10
4.64796e+10
4.64796e+10
)
;

boundaryField
{
    sides
    {
        type            zeroGradient;
    }
    empty
    {
        type            empty;
    }
}


// ************************************************************************* //
