/*--------------------------------*- C++ -*----------------------------------*\
| =========                 |                                                 |
| \\      /  F ield         | OpenFOAM: The Open Source CFD Toolbox           |
|  \\    /   O peration     | Version:  2312                                  |
|   \\  /    A nd           | Website:  www.openfoam.com                      |
|    \\/     M anipulation  |                                                 |
\*---------------------------------------------------------------------------*/
FoamFile
{
    version     2.0;
    format      ascii;
    arch        "LSB;label=32;scalar=64";
    class       volScalarField;
    location    "0.019";
    object      p;
}
// * * * * * * * * * * * * * * * * * * * * * * * * * * * * * * * * * * * * * //

dimensions      [1 -1 -2 0 0 0 0];

internalField   nonuniform List<scalar> 
100
(
71630.2
70782.1
69691.4
68691.8
67662.9
66647.6
65632.6
64623.7
63621
62625.7
61638.7
60660.6
59691.7
58732.4
57782.3
56843
55910.3
54994.2
54070.8
53192.9
52249.7
51455.3
50425.9
49793.6
48604
48169.8
46856.2
46494.3
45253.4
44756.6
43738.6
43063.6
42218.3
41468.2
40697
39947.9
39209.3
38484.4
37773.7
37077.7
36397.2
35733.3
35086.9
34459.2
33851.6
33265.7
32703.3
32166.7
31658.7
31182
30740.1
30336.2
29973.5
29655.1
29383.1
29158.1
28978.4
28840.5
28739.3
28668.7
28621.8
28591.7
28572.9
28562.2
28557.1
28554.3
28551.6
28547.9
28547.5
28547.2
28555.5
28545.8
28561.6
28520
28582.1
28485.6
28647.4
28431
28710.9
28352.1
28740.5
28348.2
28749
28460.2
28746.7
28638.9
28842.9
28979.7
29226
29626.2
29832.3
30418.1
30242.3
31116.8
30291.6
32073.6
30715.3
34455.1
33259.7
39139.1
)
;

boundaryField
{
    sides
    {
        type            zeroGradient;
    }
    empty
    {
        type            empty;
    }
}


// ************************************************************************* //
