/*--------------------------------*- C++ -*----------------------------------*\
| =========                 |                                                 |
| \\      /  F ield         | OpenFOAM: The Open Source CFD Toolbox           |
|  \\    /   O peration     | Version:  2312                                  |
|   \\  /    A nd           | Website:  www.openfoam.com                      |
|    \\/     M anipulation  |                                                 |
\*---------------------------------------------------------------------------*/
FoamFile
{
    version     2.0;
    format      ascii;
    arch        "LSB;label=32;scalar=64";
    class       volVectorField;
    location    "0.019";
    object      U;
}
// * * * * * * * * * * * * * * * * * * * * * * * * * * * * * * * * * * * * * //

dimensions      [0 1 -1 0 0 0 0];

internalField   nonuniform List<vector> 
100
(
(64.5351 0 0)
(68.291 0 0)
(72.3709 0 0)
(76.3413 0 0)
(80.4057 0 0)
(84.5107 0 0)
(88.6774 0 0)
(92.8907 0 0)
(97.1446 0 0)
(101.431 0 0)
(105.744 0 0)
(110.08 0 0)
(114.435 0 0)
(118.806 0 0)
(123.192 0 0)
(127.592 0 0)
(131.996 0 0)
(136.42 0 0)
(140.822 0 0)
(145.282 0 0)
(149.635 0 0)
(154.166 0 0)
(158.415 0 0)
(163.028 0 0)
(167.202 0 0)
(171.758 0 0)
(176.06 0 0)
(180.329 0 0)
(184.876 0 0)
(188.914 0 0)
(193.467 0 0)
(197.557 0 0)
(201.921 0 0)
(206.1 0 0)
(210.332 0 0)
(214.514 0 0)
(218.676 0 0)
(222.809 0 0)
(226.913 0 0)
(230.983 0 0)
(235.014 0 0)
(238.998 0 0)
(242.93 0 0)
(246.799 0 0)
(250.596 0 0)
(254.305 0 0)
(257.908 0 0)
(261.385 0 0)
(264.712 0 0)
(267.863 0 0)
(270.809 0 0)
(273.518 0 0)
(275.958 0 0)
(278.1 0 0)
(279.926 0 0)
(281.433 0 0)
(282.631 0 0)
(283.543 0 0)
(284.201 0 0)
(284.655 0 0)
(284.956 0 0)
(285.147 0 0)
(285.257 0 0)
(285.315 0 0)
(285.355 0 0)
(285.394 0 0)
(285.423 0 0)
(285.416 0 0)
(285.382 0 0)
(285.35 0 0)
(285.394 0 0)
(285.436 0 0)
(285.522 0 0)
(285.393 0 0)
(285.409 0 0)
(285.173 0 0)
(285.459 0 0)
(285.356 0 0)
(285.713 0 0)
(285.449 0 0)
(285.313 0 0)
(285.119 0 0)
(284.843 0 0)
(285.15 0 0)
(284.812 0 0)
(284.605 0 0)
(283.168 0 0)
(281.377 0 0)
(278.737 0 0)
(276.536 0 0)
(274.292 0 0)
(273.567 0 0)
(271.982 0 0)
(271.961 0 0)
(268.412 0 0)
(265.957 0 0)
(256.993 0 0)
(247.396 0 0)
(230.602 0 0)
(213.041 0 0)
)
;

boundaryField
{
    sides
    {
        type            mywaveTransmissive;
        gamma           1.4;
        value           nonuniform List<vector> 2((213.978 0 0) (62.9115 0 0));
    }
    empty
    {
        type            empty;
    }
}


// ************************************************************************* //
