/*--------------------------------*- C++ -*----------------------------------*\
| =========                 |                                                 |
| \\      /  F ield         | OpenFOAM: The Open Source CFD Toolbox           |
|  \\    /   O peration     | Version:  2312                                  |
|   \\  /    A nd           | Website:  www.openfoam.com                      |
|    \\/     M anipulation  |                                                 |
\*---------------------------------------------------------------------------*/
FoamFile
{
    version     2.0;
    format      ascii;
    arch        "LSB;label=32;scalar=64";
    class       volScalarField;
    location    "4e-05";
    object      p;
}
// * * * * * * * * * * * * * * * * * * * * * * * * * * * * * * * * * * * * * //

dimensions      [1 -1 -2 0 0 0 0];

internalField   nonuniform List<scalar> 
500
(
983564
984115
984456
984689
984866
985011
985134
985241
985339
985427
985510
985588
985662
985733
985802
985869
985935
986000
986064
986128
986191
986255
986319
986384
986449
986515
986581
986649
986718
986788
986860
986933
987008
987085
987164
987244
987327
987412
987500
987590
987683
987778
987877
987979
988084
988192
988304
988420
988540
988665
988793
988926
989064
989208
989356
989510
989670
989837
990010
990189
990376
990570
990773
990983
991202
991431
991669
991918
992177
992447
992729
993024
993332
993654
993991
994343
994711
995097
995500
995923
996366
996830
997317
997828
998364
998926
999517
1.00014e+06
1.00079e+06
1.00148e+06
1.0022e+06
1.00296e+06
1.00375e+06
1.00459e+06
1.00548e+06
1.00641e+06
1.00739e+06
1.00843e+06
1.00952e+06
1.01067e+06
1.01189e+06
1.01317e+06
1.01453e+06
1.01596e+06
1.01748e+06
1.01908e+06
1.02077e+06
1.02256e+06
1.02445e+06
1.02646e+06
1.02858e+06
1.03083e+06
1.03321e+06
1.03573e+06
1.03841e+06
1.04125e+06
1.04426e+06
1.04746e+06
1.05085e+06
1.05446e+06
1.05829e+06
1.06236e+06
1.06669e+06
1.07129e+06
1.07619e+06
1.0814e+06
1.08695e+06
1.09287e+06
1.09917e+06
1.10589e+06
1.11306e+06
1.12071e+06
1.12888e+06
1.13761e+06
1.14694e+06
1.15692e+06
1.16759e+06
1.17902e+06
1.19127e+06
1.20441e+06
1.2185e+06
1.23363e+06
1.24989e+06
1.26738e+06
1.2862e+06
1.30649e+06
1.32837e+06
1.35198e+06
1.37751e+06
1.40513e+06
1.43505e+06
1.4675e+06
1.50273e+06
1.54101e+06
1.58266e+06
1.6279e+06
1.67695e+06
1.73025e+06
1.7881e+06
1.85076e+06
1.91829e+06
1.9905e+06
2.06658e+06
2.14476e+06
2.22153e+06
2.29044e+06
2.34037e+06
2.35293e+06
2.29991e+06
2.14262e+06
1.83965e+06
1.37493e+06
817948
360069
147300
104265
100298
100018
99999
99997.7
99997.6
99997.6
99997.6
99997.6
99997.6
99997.6
99997.6
99997.6
99997.6
99997.6
99997.6
99997.6
99997.6
99997.6
99997.6
99997.6
99997.6
99997.6
99997.6
99997.6
99997.6
99997.6
99997.6
99997.6
99997.6
99997.6
99997.6
99997.6
99997.6
99997.6
99997.6
99997.6
99997.6
99997.6
99997.6
99997.6
99997.6
99997.6
99997.6
99997.6
99997.6
99997.6
99997.6
99997.6
99997.6
99997.6
99997.6
99997.6
99997.6
99997.6
99997.6
99997.6
99997.6
99997.6
99997.6
99997.6
99997.6
99997.6
99997.6
99997.6
99997.6
99997.6
99997.6
99997.6
99997.6
99997.6
99997.6
99997.6
99997.6
99997.6
99997.6
99997.6
99997.6
99997.6
99997.6
99997.6
99997.6
99997.6
99997.6
99997.6
99997.6
99997.6
99997.6
99997.6
99997.6
99997.6
99997.6
99997.6
99997.6
99997.6
99997.6
99997.6
99997.6
99997.6
99997.6
99997.6
99997.6
99997.6
99997.6
99997.6
99997.6
99997.6
99997.6
99997.6
99997.6
99997.6
99997.6
99997.6
99997.6
99997.6
99997.6
99997.6
99997.6
99997.6
99997.6
99997.6
99997.6
99997.6
99997.6
99997.6
99997.6
99997.6
99997.6
99997.6
99997.6
99997.6
99997.6
99997.6
99997.6
99997.6
99997.6
99997.6
99997.6
99997.6
99997.6
99997.6
99997.6
99997.6
99997.6
99997.6
99997.6
99997.6
99997.6
99997.6
99997.6
99997.6
99997.6
99997.6
99997.6
99997.6
99997.6
99997.6
99997.6
99997.6
99997.6
99997.6
99997.6
99997.6
99997.6
99997.6
99997.6
99997.6
99997.6
99997.6
99997.6
99997.6
99997.6
99997.6
99997.6
99997.6
99997.6
99997.6
99997.6
99997.6
99997.6
99997.6
99997.6
99997.6
99997.6
99997.6
99997.6
99997.6
99997.6
99997.6
99997.6
99997.6
99997.6
99997.6
99997.6
99997.6
99997.6
99997.6
99997.6
99997.6
99997.6
99997.6
99997.6
99997.6
99997.6
99997.6
99997.6
99997.6
99997.6
99997.6
99997.6
99997.6
99997.6
99997.6
99997.6
99997.6
99997.6
99997.6
99997.6
99997.6
99997.6
99997.6
99997.6
99997.6
99997.6
99997.6
99997.6
99997.6
99997.6
99997.6
99997.6
99997.6
99997.6
99997.6
99997.6
99997.6
99997.6
99997.6
99997.6
99997.6
99997.6
99997.6
99997.6
99997.6
99997.6
99997.6
99997.6
99997.6
99997.6
99997.6
99997.6
99997.6
99997.6
99997.6
99997.6
99997.6
99997.6
99997.6
99997.6
99997.6
99997.6
99997.6
99997.6
99997.6
99997.6
99997.6
99997.6
99997.6
99997.6
99997.6
99997.6
99997.6
99997.6
99997.6
99997.6
99997.6
99997.6
99997.6
99997.6
99997.6
99997.6
99997.6
99997.6
99997.6
99997.6
99997.6
99997.6
99997.6
99997.6
99997.6
99997.6
99997.6
99997.6
99997.6
99997.6
99997.6
99997.6
99997.6
99997.6
99997.6
99997.6
99997.6
99997.6
99997.6
99997.6
99997.6
99997.6
99997.6
99997.6
99997.6
99997.6
99997.6
99997.6
99997.6
99997.6
99997.6
99997.6
99997.6
99997.6
99997.6
99997.6
99997.6
99997.6
99997.6
99997.6
99997.6
)
;

boundaryField
{
    wedge0
    {
        type            wedge;
    }
    wedge1
    {
        type            wedge;
    }
    wedge2
    {
        type            wedge;
    }
    wedge3
    {
        type            wedge;
    }
    outlet
    {
        type            zeroGradient;
    }
    defaultFaces
    {
        type            empty;
    }
}


// ************************************************************************* //
