/*--------------------------------*- C++ -*----------------------------------*\
| =========                 |                                                 |
| \\      /  F ield         | OpenFOAM: The Open Source CFD Toolbox           |
|  \\    /   O peration     | Version:  2312                                  |
|   \\  /    A nd           | Website:  www.openfoam.com                      |
|    \\/     M anipulation  |                                                 |
\*---------------------------------------------------------------------------*/
FoamFile
{
    version     2.0;
    format      ascii;
    arch        "LSB;label=32;scalar=64";
    class       volScalarField;
    location    "4e-05";
    object      rho;
}
// * * * * * * * * * * * * * * * * * * * * * * * * * * * * * * * * * * * * * //

dimensions      [1 -3 0 0 0 0 0];

internalField   nonuniform List<scalar> 
500
(
0.00756102
0.00756786
0.00757737
0.00759012
0.00760641
0.0076264
0.00765016
0.00767777
0.00770929
0.00774478
0.0077843
0.00782792
0.00787569
0.0079277
0.00798403
0.00804475
0.00810997
0.00817977
0.00825427
0.00833357
0.00841781
0.00850709
0.00860157
0.00870138
0.00880668
0.00891764
0.00903442
0.00915722
0.00928623
0.00942165
0.00956369
0.00971261
0.00986862
0.010032
0.010203
0.0103819
0.0105691
0.0107648
0.0109694
0.0111832
0.0114066
0.01164
0.0118839
0.0121386
0.0124046
0.0126825
0.0129726
0.0132757
0.0135921
0.0139227
0.0142679
0.0146284
0.0150051
0.0153985
0.0158096
0.0162391
0.0166879
0.0171569
0.0176472
0.0181597
0.0186956
0.0192561
0.0198422
0.0204554
0.0210969
0.0217683
0.022471
0.0232066
0.0239769
0.0247836
0.0256287
0.0265141
0.027442
0.0284145
0.0294342
0.0305035
0.031625
0.0328017
0.0340363
0.0353322
0.0366926
0.038121
0.0396213
0.0411973
0.0428532
0.0445935
0.0464228
0.0483462
0.0503688
0.0524963
0.0547345
0.0570897
0.0595685
0.0621779
0.0649252
0.0678185
0.0708659
0.0740763
0.0774591
0.0810241
0.0847817
0.0887432
0.0929202
0.0973253
0.101972
0.106873
0.112045
0.117503
0.123263
0.129344
0.135763
0.142543
0.149702
0.157265
0.165256
0.173699
0.182622
0.192054
0.202027
0.212573
0.223727
0.235528
0.248016
0.261234
0.275229
0.29005
0.305752
0.322393
0.340034
0.358744
0.378595
0.399666
0.422044
0.445821
0.471099
0.49799
0.526614
0.557104
0.589607
0.624282
0.661307
0.700877
0.743208
0.788539
0.837137
0.889299
0.945356
1.00568
1.07068
1.14083
1.21666
1.29875
1.38777
1.48448
1.58971
1.70392
1.82691
1.96017
2.10509
2.26298
2.43499
2.62207
2.82456
3.04173
3.27068
3.50475
3.73063
3.92422
4.04521
4.03285
3.81086
3.31876
2.58639
1.82667
1.34203
1.18602
1.1632
1.16116
1.16101
1.161
1.161
1.161
1.161
1.161
1.161
1.161
1.161
1.161
1.161
1.161
1.161
1.161
1.161
1.161
1.161
1.161
1.161
1.161
1.161
1.161
1.161
1.161
1.161
1.161
1.161
1.161
1.161
1.161
1.161
1.161
1.161
1.161
1.161
1.161
1.161
1.161
1.161
1.161
1.161
1.161
1.161
1.161
1.161
1.161
1.161
1.161
1.161
1.161
1.161
1.161
1.161
1.161
1.161
1.161
1.161
1.161
1.161
1.161
1.161
1.161
1.161
1.161
1.161
1.161
1.161
1.161
1.161
1.161
1.161
1.161
1.161
1.161
1.161
1.161
1.161
1.161
1.161
1.161
1.161
1.161
1.161
1.161
1.161
1.161
1.161
1.161
1.161
1.161
1.161
1.161
1.161
1.161
1.161
1.161
1.161
1.161
1.161
1.161
1.161
1.161
1.161
1.161
1.161
1.161
1.161
1.161
1.161
1.161
1.161
1.161
1.161
1.161
1.161
1.161
1.161
1.161
1.161
1.161
1.161
1.161
1.161
1.161
1.161
1.161
1.161
1.161
1.161
1.161
1.161
1.161
1.161
1.161
1.161
1.161
1.161
1.161
1.161
1.161
1.161
1.161
1.161
1.161
1.161
1.161
1.161
1.161
1.161
1.161
1.161
1.161
1.161
1.161
1.161
1.161
1.161
1.161
1.161
1.161
1.161
1.161
1.161
1.161
1.161
1.161
1.161
1.161
1.161
1.161
1.161
1.161
1.161
1.161
1.161
1.161
1.161
1.161
1.161
1.161
1.161
1.161
1.161
1.161
1.161
1.161
1.161
1.161
1.161
1.161
1.161
1.161
1.161
1.161
1.161
1.161
1.161
1.161
1.161
1.161
1.161
1.161
1.161
1.161
1.161
1.161
1.161
1.161
1.161
1.161
1.161
1.161
1.161
1.161
1.161
1.161
1.161
1.161
1.161
1.161
1.161
1.161
1.161
1.161
1.161
1.161
1.161
1.161
1.161
1.161
1.161
1.161
1.161
1.161
1.161
1.161
1.161
1.161
1.161
1.161
1.161
1.161
1.161
1.161
1.161
1.161
1.161
1.161
1.161
1.161
1.161
1.161
1.161
1.161
1.161
1.161
1.161
1.161
1.161
1.161
1.161
1.161
1.161
1.161
1.161
1.161
1.161
1.161
1.161
1.161
1.161
1.161
1.161
1.161
1.161
1.161
1.161
1.161
1.161
1.161
1.161
1.161
1.161
1.161
1.161
1.161
1.161
1.161
1.161
1.161
1.161
1.161
1.161
1.161
1.161
1.161
1.161
1.161
1.161
1.161
1.161
1.161
1.161
1.161
1.161
1.161
1.161
1.161
1.161
1.161
1.161
1.161
1.161
1.161
1.161
1.161
1.161
1.161
1.161
1.161
1.161
1.161
)
;

boundaryField
{
    wedge0
    {
        type            wedge;
    }
    wedge1
    {
        type            wedge;
    }
    wedge2
    {
        type            wedge;
    }
    wedge3
    {
        type            wedge;
    }
    outlet
    {
        type            zeroGradient;
    }
    defaultFaces
    {
        type            empty;
    }
}


// ************************************************************************* //
