/*--------------------------------*- C++ -*----------------------------------*\
| =========                 |                                                 |
| \\      /  F ield         | OpenFOAM: The Open Source CFD Toolbox           |
|  \\    /   O peration     | Version:  2312                                  |
|   \\  /    A nd           | Website:  www.openfoam.com                      |
|    \\/     M anipulation  |                                                 |
\*---------------------------------------------------------------------------*/
FoamFile
{
    version     2.0;
    format      ascii;
    arch        "LSB;label=32;scalar=64";
    class       volScalarField;
    location    "4e-05";
    object      T;
}
// * * * * * * * * * * * * * * * * * * * * * * * * * * * * * * * * * * * * * //

dimensions      [0 0 0 1 0 0 0];

internalField   nonuniform List<scalar> 
500
(
453092
452936
452524
451871
450984
449868
448527
446963
445179
443179
440966
438544
435916
433088
430062
426845
423441
419855
416093
412160
408062
403805
399396
394841
390145
385316
380361
375287
370099
364805
359413
353929
348360
342713
336996
331215
325377
319489
313559
307592
301595
295576
289540
283494
277443
271395
265355
259328
253321
247338
241385
235467
229589
223755
217970
212238
206564
200950
195401
189921
184512
179177
173919
168742
163647
158636
153713
148877
144132
139478
134918
130451
126079
121803
117623
113540
109554
105666
101874
98179.1
94581.2
91079.5
87673.6
84362.8
81146.5
78023.6
74993.3
72054.6
69206.2
66447.1
63775.8
61191
58691.4
56275.4
53941.5
51688.2
49513.7
47416.6
45394.9
43447.1
41571.5
39766.1
38029.3
36359.3
34754.3
33212.5
31732.1
30311.3
28948.3
27641.4
26388.7
25188.6
24039.4
22939.2
21886.5
20879.6
19916.8
18996.6
18117.4
17277.7
16475.9
15710.6
14980.3
14283.7
13619.4
12986.1
12382.4
11807.2
11259.2
10737.2
10240.2
9767
9316.56
8887.86
8479.93
8091.81
7722.6
7371.41
7037.41
6719.8
6417.8
6130.66
5857.68
5598.19
5351.53
5117.08
4894.25
4682.49
4481.25
4290.01
4108.3
3935.64
3771.59
3615.73
3467.63
3327.69
3197.17
3074.52
2958.59
2848.61
2743.98
2644.12
2548.38
2455.97
2365.79
2276.28
2185.07
2088.43
1980.32
1850.53
1681.42
1443.01
1101.53
686.575
382.3
306.203
300.333
300.02
300.001
300
300
300
300
300
300
300
300
300
300
300
300
300
300
300
300
300
300
300
300
300
300
300
300
300
300
300
300
300
300
300
300
300
300
300
300
300
300
300
300
300
300
300
300
300
300
300
300
300
300
300
300
300
300
300
300
300
300
300
300
300
300
300
300
300
300
300
300
300
300
300
300
300
300
300
300
300
300
300
300
300
300
300
300
300
300
300
300
300
300
300
300
300
300
300
300
300
300
300
300
300
300
300
300
300
300
300
300
300
300
300
300
300
300
300
300
300
300
300
300
300
300
300
300
300
300
300
300
300
300
300
300
300
300
300
300
300
300
300
300
300
300
300
300
300
300
300
300
300
300
300
300
300
300
300
300
300
300
300
300
300
300
300
300
300
300
300
300
300
300
300
300
300
300
300
300
300
300
300
300
300
300
300
300
300
300
300
300
300
300
300
300
300
300
300
300
300
300
300
300
300
300
300
300
300
300
300
300
300
300
300
300
300
300
300
300
300
300
300
300
300
300
300
300
300
300
300
300
300
300
300
300
300
300
300
300
300
300
300
300
300
300
300
300
300
300
300
300
300
300
300
300
300
300
300
300
300
300
300
300
300
300
300
300
300
300
300
300
300
300
300
300
300
300
300
300
300
300
300
300
300
300
300
300
300
300
300
300
300
300
300
300
300
300
300
300
300
300
300
300
300
300
300
300
300
300
300
300
300
300
300
300
300
300
300
300
300
300
300
300
300
)
;

boundaryField
{
    wedge0
    {
        type            wedge;
    }
    wedge1
    {
        type            wedge;
    }
    wedge2
    {
        type            wedge;
    }
    wedge3
    {
        type            wedge;
    }
    outlet
    {
        type            zeroGradient;
    }
    defaultFaces
    {
        type            empty;
    }
}


// ************************************************************************* //
