/*--------------------------------*- C++ -*----------------------------------*\
| =========                 |                                                 |
| \\      /  F ield         | OpenFOAM: The Open Source CFD Toolbox           |
|  \\    /   O peration     | Version:  2312                                  |
|   \\  /    A nd           | Website:  www.openfoam.com                      |
|    \\/     M anipulation  |                                                 |
\*---------------------------------------------------------------------------*/
FoamFile
{
    version     2.0;
    format      ascii;
    arch        "LSB;label=32;scalar=64";
    class       volScalarField;
    location    "4e-05";
    object      thermo:e;
}
// * * * * * * * * * * * * * * * * * * * * * * * * * * * * * * * * * * * * * //

dimensions      [0 2 -2 0 0 0 0];

internalField   nonuniform List<scalar> 
500
(
3.25184e+08
3.25072e+08
3.24777e+08
3.24308e+08
3.23671e+08
3.22871e+08
3.21908e+08
3.20785e+08
3.19505e+08
3.1807e+08
3.16481e+08
3.14743e+08
3.12857e+08
3.10827e+08
3.08656e+08
3.06347e+08
3.03904e+08
3.0133e+08
2.9863e+08
2.95807e+08
2.92866e+08
2.89811e+08
2.86647e+08
2.83377e+08
2.80007e+08
2.76542e+08
2.72985e+08
2.69343e+08
2.6562e+08
2.61821e+08
2.57951e+08
2.54015e+08
2.50018e+08
2.45965e+08
2.41862e+08
2.37713e+08
2.33523e+08
2.29297e+08
2.25041e+08
2.20759e+08
2.16455e+08
2.12135e+08
2.07803e+08
2.03463e+08
1.99121e+08
1.9478e+08
1.90445e+08
1.8612e+08
1.81808e+08
1.77514e+08
1.73242e+08
1.68995e+08
1.64776e+08
1.60589e+08
1.56437e+08
1.52323e+08
1.48251e+08
1.44222e+08
1.4024e+08
1.36306e+08
1.32424e+08
1.28595e+08
1.24822e+08
1.21106e+08
1.17449e+08
1.13853e+08
1.10319e+08
1.06849e+08
1.03443e+08
1.00104e+08
9.68304e+07
9.36247e+07
9.0487e+07
8.74181e+07
8.44183e+07
8.14879e+07
7.86272e+07
7.58362e+07
7.31149e+07
7.04632e+07
6.78809e+07
6.53677e+07
6.29233e+07
6.05472e+07
5.82388e+07
5.59976e+07
5.38227e+07
5.17136e+07
4.96693e+07
4.76891e+07
4.57719e+07
4.39168e+07
4.21228e+07
4.03889e+07
3.87138e+07
3.70966e+07
3.5536e+07
3.40309e+07
3.25799e+07
3.1182e+07
2.98358e+07
2.85401e+07
2.72937e+07
2.60951e+07
2.49432e+07
2.38366e+07
2.27741e+07
2.17544e+07
2.07762e+07
1.98382e+07
1.89392e+07
1.80779e+07
1.7253e+07
1.64635e+07
1.57079e+07
1.49853e+07
1.42943e+07
1.36339e+07
1.30029e+07
1.24002e+07
1.18248e+07
1.12755e+07
1.07514e+07
1.02514e+07
9.77466e+06
9.3201e+06
8.88686e+06
8.47402e+06
8.08072e+06
7.70611e+06
7.34939e+06
7.00977e+06
6.68649e+06
6.37882e+06
6.08604e+06
5.80749e+06
5.54251e+06
5.29046e+06
5.05075e+06
4.8228e+06
4.60605e+06
4.39997e+06
4.20406e+06
4.01782e+06
3.84079e+06
3.67253e+06
3.51261e+06
3.36062e+06
3.21619e+06
3.07894e+06
2.94853e+06
2.82461e+06
2.70687e+06
2.59501e+06
2.48872e+06
2.38828e+06
2.29461e+06
2.20659e+06
2.12338e+06
2.04445e+06
1.96936e+06
1.89768e+06
1.82897e+06
1.76265e+06
1.69793e+06
1.63369e+06
1.56822e+06
1.49887e+06
1.42127e+06
1.32813e+06
1.20675e+06
1.03565e+06
790565
492755
274377
219762
215549
215324
215311
215310
215310
215310
215310
215310
215310
215310
215310
215310
215310
215310
215310
215310
215310
215310
215310
215310
215310
215310
215310
215310
215310
215310
215310
215310
215310
215310
215310
215310
215310
215310
215310
215310
215310
215310
215310
215310
215310
215310
215310
215310
215310
215310
215310
215310
215310
215310
215310
215310
215310
215310
215310
215310
215310
215310
215310
215310
215310
215310
215310
215310
215310
215310
215310
215310
215310
215310
215310
215310
215310
215310
215310
215310
215310
215310
215310
215310
215310
215310
215310
215310
215310
215310
215310
215310
215310
215310
215310
215310
215310
215310
215310
215310
215310
215310
215310
215310
215310
215310
215310
215310
215310
215310
215310
215310
215310
215310
215310
215310
215310
215310
215310
215310
215310
215310
215310
215310
215310
215310
215310
215310
215310
215310
215310
215310
215310
215310
215310
215310
215310
215310
215310
215310
215310
215310
215310
215310
215310
215310
215310
215310
215310
215310
215310
215310
215310
215310
215310
215310
215310
215310
215310
215310
215310
215310
215310
215310
215310
215310
215310
215310
215310
215310
215310
215310
215310
215310
215310
215310
215310
215310
215310
215310
215310
215310
215310
215310
215310
215310
215310
215310
215310
215310
215310
215310
215310
215310
215310
215310
215310
215310
215310
215310
215310
215310
215310
215310
215310
215310
215310
215310
215310
215310
215310
215310
215310
215310
215310
215310
215310
215310
215310
215310
215310
215310
215310
215310
215310
215310
215310
215310
215310
215310
215310
215310
215310
215310
215310
215310
215310
215310
215310
215310
215310
215310
215310
215310
215310
215310
215310
215310
215310
215310
215310
215310
215310
215310
215310
215310
215310
215310
215310
215310
215310
215310
215310
215310
215310
215310
215310
215310
215310
215310
215310
215310
215310
215310
215310
215310
215310
215310
215310
215310
215310
215310
215310
215310
215310
215310
215310
215310
215310
215310
215310
215310
215310
215310
215310
215310
215310
215310
215310
215310
215310
215310
215310
215310
215310
215310
215310
215310
215310
215310
215310
215310
215310
215310
215310
215310
215310
215310
215310
215310
215310
215310
215310
215310
215310
215310
215310
215310
)
;

boundaryField
{
    wedge0
    {
        type            wedge;
    }
    wedge1
    {
        type            wedge;
    }
    wedge2
    {
        type            wedge;
    }
    wedge3
    {
        type            wedge;
    }
    outlet
    {
        type            zeroGradient;
    }
    defaultFaces
    {
        type            empty;
    }
}


// ************************************************************************* //
