/*--------------------------------*- C++ -*----------------------------------*\
| =========                 |                                                 |
| \\      /  F ield         | OpenFOAM: The Open Source CFD Toolbox           |
|  \\    /   O peration     | Version:  2312                                  |
|   \\  /    A nd           | Website:  www.openfoam.com                      |
|    \\/     M anipulation  |                                                 |
\*---------------------------------------------------------------------------*/
FoamFile
{
    version     2.0;
    format      ascii;
    arch        "LSB;label=32;scalar=64";
    class       volVectorField;
    location    "4e-05";
    object      U;
}
// * * * * * * * * * * * * * * * * * * * * * * * * * * * * * * * * * * * * * //

dimensions      [0 1 -1 0 0 0 0];

internalField   nonuniform List<vector> 
500
(
(6.72777 -3.90305e-10 3.90352e-10)
(12.1149 -3.90238e-10 3.9009e-10)
(18.1242 -4.09227e-10 4.13785e-10)
(24.5072 -4.06985e-10 4.13701e-10)
(31.0396 -3.85876e-10 3.89195e-10)
(37.6444 -3.81862e-10 3.82856e-10)
(44.2894 -3.73417e-10 3.73892e-10)
(50.9592 -3.63207e-10 3.6321e-10)
(57.6453 -3.44173e-10 3.44154e-10)
(64.3428 -3.13354e-10 3.13327e-10)
(71.0485 -2.84421e-10 2.8438e-10)
(77.7604 -2.57232e-10 2.5721e-10)
(84.4772 -2.31659e-10 2.31663e-10)
(91.1978 -2.06498e-10 2.06502e-10)
(97.9216 -1.81375e-10 1.81446e-10)
(104.648 -1.57776e-10 1.57916e-10)
(111.377 -1.35323e-10 1.35316e-10)
(118.107 -1.20682e-10 1.20691e-10)
(124.84 -1.08883e-10 1.08881e-10)
(131.573 -1.04608e-10 1.04619e-10)
(138.309 -1.03053e-10 1.03053e-10)
(145.045 -1.02954e-10 1.02955e-10)
(151.783 -1.04649e-10 1.04647e-10)
(158.522 -1.06781e-10 1.0679e-10)
(165.261 -1.06481e-10 1.06475e-10)
(172.002 -1.04233e-10 1.04221e-10)
(178.744 -1.01104e-10 1.01103e-10)
(185.487 -9.89099e-11 9.89124e-11)
(192.231 -9.40298e-11 9.40192e-11)
(198.975 -9.05437e-11 9.05252e-11)
(205.721 -8.5852e-11 8.58521e-11)
(212.467 -8.32457e-11 8.32457e-11)
(219.215 -7.87417e-11 7.87417e-11)
(225.963 -7.34728e-11 7.34728e-11)
(232.712 -6.84785e-11 6.84785e-11)
(239.462 -6.48803e-11 6.48803e-11)
(246.214 -6.19711e-11 6.19711e-11)
(252.966 -5.86891e-11 5.86891e-11)
(259.719 -5.63944e-11 5.63944e-11)
(266.474 -5.39748e-11 5.39748e-11)
(273.229 -4.98211e-11 4.98211e-11)
(279.985 -4.5074e-11 4.5074e-11)
(286.743 -4.13333e-11 4.13333e-11)
(293.502 -3.81544e-11 3.81544e-11)
(300.262 -3.59009e-11 3.59009e-11)
(307.023 -3.32476e-11 3.32476e-11)
(313.786 -2.99477e-11 2.99477e-11)
(320.55 -2.65062e-11 2.65062e-11)
(327.315 -2.25372e-11 2.25372e-11)
(334.082 -1.93443e-11 1.93443e-11)
(340.851 -1.62727e-11 1.62727e-11)
(347.621 -1.3406e-11 1.3406e-11)
(354.392 -1.1083e-11 1.1083e-11)
(361.166 -8.36066e-12 8.36066e-12)
(367.941 -5.98412e-12 5.98412e-12)
(374.718 -4.04561e-12 4.04561e-12)
(381.497 -1.72601e-12 1.72601e-12)
(388.278 3.82579e-13 -3.82579e-13)
(395.061 2.46247e-12 -2.46247e-12)
(401.846 4.24667e-12 -4.24667e-12)
(408.634 4.14539e-12 -4.14539e-12)
(415.424 4.07531e-12 -4.07531e-12)
(422.216 4.06473e-12 -4.06473e-12)
(429.011 3.95229e-12 -3.95229e-12)
(435.809 3.89061e-12 -3.89061e-12)
(442.61 3.73376e-12 -3.73376e-12)
(449.414 3.77866e-12 -3.77866e-12)
(456.221 3.9317e-12 -3.9317e-12)
(463.031 3.66615e-12 -3.66615e-12)
(469.845 3.13328e-12 -3.13328e-12)
(476.662 2.18894e-12 -2.18894e-12)
(483.484 1.53047e-12 -1.53047e-12)
(490.309 1.02723e-12 -1.02723e-12)
(497.138 8.6298e-13 -8.6298e-13)
(503.972 1.04041e-12 -1.04041e-12)
(510.811 1.48941e-12 -1.48941e-12)
(517.654 1.21037e-12 -1.21037e-12)
(524.502 1.11193e-12 -1.11193e-12)
(531.356 8.8957e-13 -8.88304e-13)
(538.216 5.27407e-13 -5.26446e-13)
(545.081 4.07361e-13 -4.0547e-13)
(551.953 5.38089e-13 -5.36878e-13)
(558.831 8.92748e-13 -8.91286e-13)
(565.716 6.82878e-13 -6.8225e-13)
(572.609 3.07466e-13 -3.03455e-13)
(579.509 -2.88023e-13 2.88407e-13)
(586.418 -4.34385e-13 4.34822e-13)
(593.335 -7.24231e-13 7.24664e-13)
(600.261 -5.55525e-13 5.5587e-13)
(607.196 -5.03422e-13 5.03783e-13)
(614.142 -6.0893e-13 6.09447e-13)
(621.098 -4.25348e-13 4.21971e-13)
(628.065 -3.37012e-13 3.36194e-13)
(635.044 -3.93909e-13 3.93857e-13)
(642.036 -3.17058e-13 3.17168e-13)
(649.041 -3.13959e-13 3.13616e-13)
(656.06 -3.71215e-13 3.70549e-13)
(663.094 -3.11659e-13 3.11757e-13)
(670.143 -2.79126e-13 2.7938e-13)
(677.209 -1.18181e-13 1.18396e-13)
(684.292 -1.29427e-13 1.34317e-13)
(691.394 -4.2495e-14 5.31092e-14)
(698.515 0 1.84303e-15)
(705.657 0 2.64706e-14)
(712.821 1.16868e-14 -4.59579e-14)
(720.009 1.29056e-13 -1.58058e-13)
(727.221 9.20339e-14 -1.15906e-13)
(734.459 1.80732e-13 -1.97588e-13)
(741.725 2.19336e-13 -2.26632e-13)
(749.02 1.94694e-13 -1.93258e-13)
(756.346 2.44905e-13 -2.38517e-13)
(763.706 3.20653e-13 -3.16869e-13)
(771.1 2.85127e-13 -2.85113e-13)
(778.531 2.96473e-13 -2.96356e-13)
(786.002 4.78367e-13 -4.78405e-13)
(793.515 4.90756e-13 -4.90683e-13)
(801.072 3.93907e-13 -3.93594e-13)
(808.677 3.94416e-13 -3.94123e-13)
(816.331 2.84658e-13 -2.84261e-13)
(824.038 2.45602e-13 -2.44683e-13)
(831.802 3.18644e-13 -3.17035e-13)
(839.626 5.13805e-13 -5.12323e-13)
(847.513 5.52619e-13 -5.51145e-13)
(855.468 5.74688e-13 -5.73003e-13)
(863.494 5.49365e-13 -5.46993e-13)
(871.597 4.43883e-13 -4.41783e-13)
(879.781 3.50456e-13 -3.48489e-13)
(888.05 2.68011e-13 -2.66162e-13)
(896.411 1.95502e-13 -1.93824e-13)
(904.869 1.32296e-13 -1.30718e-13)
(913.43 7.76725e-14 -7.61899e-14)
(922.1 3.12685e-14 -3.01236e-14)
(930.887 -3.85089e-15 3.85089e-15)
(939.797 -2.38762e-14 2.38762e-14)
(948.838 -1.31435e-13 1.31435e-13)
(958.019 -1.82642e-13 1.82642e-13)
(967.346 -9.59283e-14 9.59283e-14)
(976.831 -1.10514e-13 1.10514e-13)
(986.482 -9.16881e-14 9.16881e-14)
(996.309 -5.97188e-14 5.97188e-14)
(1006.32 -3.28293e-14 3.28293e-14)
(1016.54 -2.28054e-14 2.28054e-14)
(1026.96 -7.56116e-14 7.56116e-14)
(1037.6 -6.73063e-14 6.73063e-14)
(1048.49 -4.79523e-14 4.79523e-14)
(1059.62 -5.68505e-14 5.68505e-14)
(1071.01 -3.71213e-14 3.71213e-14)
(1082.69 -1.9837e-14 1.9837e-14)
(1094.66 -3.78215e-15 3.78215e-15)
(1106.94 3.19112e-14 -3.19112e-14)
(1119.54 3.78393e-14 -3.78393e-14)
(1132.5 5.81876e-15 -5.81876e-15)
(1145.8 -2.73473e-15 2.73473e-15)
(1159.48 1.99525e-14 -1.99525e-14)
(1173.53 2.21089e-15 -2.21089e-15)
(1187.99 0 0)
(1202.89 -6.46561e-16 6.51971e-16)
(1218.15 -2.76572e-14 2.76682e-14)
(1233.72 -4.24579e-15 4.23904e-15)
(1249.51 -2.62243e-14 2.62695e-14)
(1265.39 -4.21206e-14 4.22137e-14)
(1281.11 -3.12605e-14 3.13482e-14)
(1296.29 -6.15151e-15 6.21882e-15)
(1310.27 -3.95353e-14 3.95974e-14)
(1322.05 -3.2581e-14 3.26033e-14)
(1329.96 -2.60188e-14 2.60469e-14)
(1331.37 -2.08015e-14 2.08262e-14)
(1322.07 -6.84963e-15 6.87155e-15)
(1295.24 -6.02041e-15 6.02041e-15)
(1240 -3.87214e-15 3.87214e-15)
(1139.09 -2.22323e-15 2.22119e-15)
(967.073 -8.11425e-15 8.1133e-15)
(699.015 -5.63292e-15 5.59836e-15)
(360.117 -3.67914e-15 3.64732e-15)
(94.0953 -9.25059e-15 9.21146e-15)
(10.3005 -9.75939e-15 9.7302e-15)
(0.745389 -1.55179e-15 1.53708e-15)
(0.0507914 0 0)
(0.00342909 -3.15387e-17 3.15387e-17)
(0.000230081 6.99177e-15 -6.99177e-15)
(1.53458e-05 6.96271e-15 -6.96271e-15)
(1.01748e-06 3.18585e-17 -3.18585e-17)
(6.7064e-08 0 0)
(4.3944e-09 0 0)
(2.93934e-10 0 0)
(3.31351e-11 0 0)
(8.38075e-12 0 0)
(-1.69344e-12 0 0)
(-4.14372e-12 0 0)
(-6.17333e-13 0 0)
(-2.82752e-12 3.11489e-15 -3.11489e-15)
(-3.18737e-12 0 0)
(-9.94805e-13 0 0)
(-7.97048e-13 -2.02035e-15 2.02035e-15)
(4.65172e-12 1.98246e-15 -1.98246e-15)
(9.76852e-12 0 0)
(1.5231e-11 -2.92722e-15 2.92722e-15)
(1.46064e-11 0 0)
(1.16759e-11 0 0)
(-2.93326e-12 5.68445e-15 -5.68e-15)
(-1.15637e-11 5.6609e-15 -5.65393e-15)
(9.29612e-13 3.30793e-17 -3.02454e-17)
(1.40018e-12 0 0)
(2.13374e-13 -7.55771e-16 7.55771e-16)
(-2.50503e-12 -6.93403e-15 6.93403e-15)
(-8.72312e-12 -7.66844e-15 7.66844e-15)
(-1.00459e-11 -3.07235e-15 3.07235e-15)
(-7.75761e-12 -3.79775e-15 3.79775e-15)
(4.98609e-12 7.10885e-16 -7.10885e-16)
(1.21418e-11 0 0)
(1.23965e-11 0 0)
(1.2704e-11 -2.44609e-15 2.44609e-15)
(1.09794e-11 -9.89633e-15 9.89633e-15)
(1.32819e-12 -1.22966e-14 1.22966e-14)
(-8.34312e-14 -1.96085e-14 1.96085e-14)
(3.55302e-12 -2.19609e-14 2.19609e-14)
(-9.63703e-12 -9.75971e-15 9.75971e-15)
(-1.32326e-11 -2.46853e-15 2.46853e-15)
(-3.36657e-12 0 0)
(-3.88107e-12 0 0)
(-2.28071e-12 0 0)
(6.9095e-12 0 0)
(1.55202e-11 0 0)
(2.02319e-11 2.08928e-15 -2.08928e-15)
(5.78699e-12 8.66296e-15 -8.66296e-15)
(-6.86941e-12 1.78616e-15 -1.78616e-15)
(1.33634e-12 -2.83823e-15 2.83823e-15)
(5.89323e-12 -1.18061e-14 1.18061e-14)
(1.17181e-12 -7.65057e-15 7.65057e-15)
(-6.46091e-12 -7.84093e-15 7.84093e-15)
(-1.44332e-11 -1.23009e-14 1.23009e-14)
(-1.43908e-11 -4.01631e-15 4.01631e-15)
(-1.01305e-11 0 0)
(-1.07013e-11 0 0)
(-2.67691e-12 0 0)
(1.26565e-11 0 0)
(1.53382e-11 0 0)
(2.48323e-12 0 0)
(-1.03494e-11 0 0)
(-1.0914e-11 -2.85142e-15 2.85142e-15)
(-7.66804e-12 -9.60183e-15 9.60183e-15)
(-3.97513e-12 -4.62224e-15 4.62224e-15)
(2.77885e-13 1.64689e-15 -1.64689e-15)
(8.46775e-12 1.93467e-14 -1.93467e-14)
(7.91772e-12 2.54244e-14 -2.54244e-14)
(-8.84172e-13 2.30489e-14 -2.30489e-14)
(-2.37973e-12 9.45667e-15 -9.45667e-15)
(4.10072e-12 7.08684e-15 -7.08684e-15)
(1.2294e-11 8.37954e-15 -8.37954e-15)
(9.08988e-12 -1.27564e-15 1.27564e-15)
(-2.395e-12 -5.45988e-18 5.45988e-18)
(-1.15931e-11 0 0)
(-1.40214e-11 0 0)
(-1.03681e-11 0 0)
(-1.65839e-12 0 0)
(6.25519e-12 0 0)
(3.98826e-13 -1.70518e-15 1.70518e-15)
(-3.3442e-12 -6.81805e-15 6.81805e-15)
(-4.3198e-12 -1.70579e-15 1.70579e-15)
(-8.898e-12 0 0)
(-3.19616e-13 0 0)
(9.94636e-12 0 0)
(6.06234e-12 1.59264e-15 -1.59264e-15)
(-2.9257e-12 6.44027e-15 -6.44027e-15)
(-2.52251e-12 1.44941e-14 -1.44941e-14)
(3.99184e-12 1.2831e-14 -1.2831e-14)
(-1.16838e-12 1.43725e-14 -1.43725e-14)
(-1.27045e-11 6.39223e-15 -6.39223e-15)
(-1.0482e-11 1.61693e-15 -1.61693e-15)
(-3.60487e-12 0 0)
(-3.80437e-12 0 0)
(-3.0052e-12 0 0)
(1.65155e-12 0 0)
(3.45289e-12 0 0)
(7.57502e-12 -1.48964e-15 1.48964e-15)
(8.21793e-12 -5.95599e-15 5.95599e-15)
(1.3972e-11 -1.48984e-15 1.48984e-15)
(2.71824e-11 0 0)
(2.02155e-11 0 0)
(-1.83769e-12 0 0)
(-4.08202e-12 0 0)
(3.16374e-12 9.41209e-16 -9.41209e-16)
(1.78978e-12 4.71762e-15 -4.71762e-15)
(-5.51679e-12 0 0)
(-8.80896e-12 -4.65814e-15 4.65814e-15)
(-7.43207e-12 -9.34518e-16 9.34518e-16)
(-7.64907e-12 0 0)
(-2.49374e-12 0 0)
(3.57982e-12 -2.71608e-15 2.71608e-15)
(7.90238e-12 0 0)
(4.71529e-12 0 0)
(-9.54534e-13 1.78043e-15 -1.78043e-15)
(-6.93826e-12 -1.75551e-15 1.75551e-15)
(-1.12887e-11 0 0)
(5.43548e-13 0 0)
(6.39329e-12 1.72942e-15 -1.72942e-15)
(4.85922e-12 -1.70957e-15 1.70957e-15)
(7.69177e-12 0 0)
(5.45511e-12 0 0)
(2.63572e-12 0 0)
(-6.54275e-13 -2.50267e-15 2.50267e-15)
(2.20537e-12 -2.05038e-18 2.05038e-18)
(7.31287e-12 -2.47199e-15 2.47199e-15)
(5.73529e-12 0 0)
(-4.03252e-12 2.4384e-15 -2.4384e-15)
(-9.00465e-12 0 0)
(-7.30697e-12 0 0)
(-2.19797e-12 0 0)
(4.09489e-12 -4.75057e-15 4.75057e-15)
(-1.3928e-12 -4.73541e-15 4.73541e-15)
(-5.64312e-12 -1.60424e-17 1.60424e-17)
(-1.64389e-11 0 0)
(-1.63599e-11 0 0)
(-7.02255e-12 0 0)
(-5.13575e-12 2.28544e-15 -2.28544e-15)
(3.05788e-12 0 0)
(9.3046e-12 0 0)
(1.92513e-11 -3.84066e-16 3.84066e-16)
(2.10771e-11 -5.23578e-15 5.23578e-15)
(8.41275e-12 -1.44963e-14 1.44963e-14)
(-9.248e-12 -1.92848e-14 1.92848e-14)
(-1.0578e-11 -1.96587e-14 1.96587e-14)
(5.24478e-12 -1.5671e-14 1.5671e-14)
(1.10375e-11 -1.60364e-14 1.60364e-14)
(7.12653e-12 -1.20954e-14 1.20954e-14)
(4.61486e-12 -3.89607e-15 3.89607e-15)
(9.5437e-13 0 0)
(-2.87683e-12 0 0)
(-1.04546e-11 2.09501e-15 -2.09501e-15)
(-1.25439e-11 0 0)
(7.02942e-13 0 0)
(1.24392e-11 0 0)
(1.54499e-11 0 0)
(2.20104e-12 -4.06511e-15 4.06511e-15)
(-8.43063e-12 -4.05347e-15 4.05347e-15)
(-7.92008e-12 -1.27789e-17 1.27789e-17)
(-5.78611e-12 0 0)
(-9.86982e-12 0 0)
(-1.05114e-11 0 0)
(-6.30503e-12 0 0)
(-8.93126e-12 0 0)
(-1.21713e-12 -1.93836e-15 1.93836e-15)
(2.39074e-12 0 0)
(-3.0013e-12 0 0)
(-5.72175e-12 1.90615e-15 -1.90615e-15)
(-1.19766e-12 2.80426e-18 -2.80426e-18)
(7.09223e-12 1.88443e-15 -1.88443e-15)
(5.40732e-12 0 0)
(-2.57035e-12 -3.0964e-15 3.0964e-15)
(-3.88582e-12 -2.46339e-15 2.46339e-15)
(2.71085e-12 -5.5232e-15 5.5232e-15)
(-2.47546e-12 -4.89508e-15 4.89508e-15)
(-1.35536e-12 -6.2095e-16 6.2095e-16)
(9.21204e-12 0 0)
(7.02745e-12 0 0)
(4.18296e-12 1.78768e-15 -1.78768e-15)
(4.88158e-12 0 0)
(2.55409e-13 -4.24023e-15 4.24023e-15)
(-5.69946e-12 -4.93157e-15 4.93157e-15)
(-6.22595e-12 -2.10969e-15 2.10969e-15)
(-8.93841e-12 -2.79131e-15 2.79131e-15)
(-1.18938e-11 0 0)
(-4.26819e-12 0 0)
(8.66493e-12 -1.70954e-15 1.70954e-15)
(6.5251e-12 1.4234e-18 -1.4234e-18)
(2.25642e-12 -1.69188e-15 1.69188e-15)
(3.22477e-12 0 0)
(-1.34033e-12 1.67401e-15 -1.67401e-15)
(-6.27172e-12 0 0)
(-2.60181e-12 0 0)
(-2.13376e-12 -7.97585e-16 7.97585e-16)
(-3.86022e-12 -4.87658e-15 4.87658e-15)
(2.84022e-12 -5.66569e-15 5.66569e-15)
(5.84823e-12 -9.69883e-15 9.69883e-15)
(3.67255e-12 -1.04784e-14 1.04784e-14)
(-1.57061e-12 -8.03771e-15 8.03771e-15)
(-7.41934e-12 -2.4142e-15 2.4142e-15)
(-2.36057e-12 0 0)
(-1.09267e-12 0 0)
(-5.27327e-12 1.56907e-15 -1.56907e-15)
(-7.54104e-12 5.84293e-19 -5.84293e-19)
(-1.06389e-11 1.55349e-15 -1.55349e-15)
(-5.08208e-12 0 0)
(-3.00976e-12 0 0)
(1.32379e-12 -1.5281e-15 1.5281e-15)
(3.01864e-12 0 0)
(1.43883e-12 0 0)
(5.95732e-12 0 0)
(7.15383e-12 2.99644e-15 -2.99644e-15)
(-9.43882e-13 2.98891e-15 -2.98891e-15)
(-4.47888e-12 8.73602e-18 -8.73602e-18)
(4.29889e-12 0 0)
(-8.79359e-13 0 0)
(-9.58535e-12 1.46005e-15 -1.46005e-15)
(-8.80538e-12 0 0)
(-4.62777e-12 0 0)
(2.16058e-12 0 0)
(5.88219e-12 0 0)
(4.14333e-12 0 0)
(1.29077e-12 0 0)
(1.03677e-12 0 0)
(3.59513e-12 0 0)
(8.81352e-12 5.9526e-16 -5.9526e-16)
(7.48094e-12 3.972e-15 -3.972e-15)
(1.54885e-12 1.01007e-14 -1.01007e-14)
(4.14984e-12 1.34425e-14 -1.34425e-14)
(5.61553e-12 1.40242e-14 -1.40242e-14)
(1.92799e-12 6.41726e-15 -6.41726e-15)
(-8.30728e-13 1.56116e-15 -1.56116e-15)
(1.26428e-12 -5.69667e-16 5.69667e-16)
(2.65907e-12 0 0)
(-4.20443e-12 0 0)
(-6.87053e-12 0 0)
(-6.69075e-12 0 0)
(-9.16071e-13 0 0)
(4.84568e-13 0 0)
(-2.07063e-12 0 0)
(-5.01803e-12 0 0)
(-4.48673e-12 -8.62305e-16 8.62305e-16)
(1.44641e-11 8.54746e-16 -8.54746e-16)
(2.12001e-11 0 0)
(1.44384e-11 0 0)
(8.4457e-12 -1.26659e-15 1.26659e-15)
(3.91014e-12 -1.79693e-18 1.79693e-18)
(3.107e-12 -1.25618e-15 1.25618e-15)
(-1.53999e-12 -1.53986e-18 1.53986e-18)
(-2.77624e-13 -1.24351e-15 1.24351e-15)
(2.19555e-12 0 0)
(4.60651e-13 -8.22248e-16 8.22248e-16)
(7.58336e-12 8.15744e-16 -8.15744e-16)
(5.10039e-12 0 0)
(-1.72753e-11 1.21373e-15 -1.21373e-15)
(-2.33123e-11 1.0072e-19 -1.0072e-19)
(-1.40477e-11 1.20342e-15 -1.20342e-15)
(-5.50966e-12 0 0)
(4.24743e-12 7.96094e-16 -7.96094e-16)
(1.17456e-11 -7.89788e-16 7.89788e-16)
(5.12253e-12 0 0)
(-1.91784e-12 -9.22231e-16 9.22231e-16)
(1.89369e-12 -4.1856e-15 4.1856e-15)
(-8.27514e-12 -9.76826e-15 9.76826e-15)
(-1.57953e-11 -8.35138e-15 8.35138e-15)
(2.2213e-12 0 0)
(8.70787e-12 8.27292e-15 -8.27292e-15)
(-3.19302e-13 9.62814e-15 -9.62814e-15)
(-1.70719e-12 4.1287e-15 -4.1287e-15)
(-8.55355e-12 9.26006e-16 -9.26006e-16)
(1.29092e-12 0 0)
(1.73364e-11 9.53667e-16 -9.53667e-16)
(1.53217e-11 4.14454e-15 -4.14454e-15)
(7.78234e-12 6.24716e-16 -6.24716e-16)
(4.89257e-12 -8.76068e-16 8.76068e-16)
(6.35385e-12 -4.58177e-15 4.58177e-15)
(9.79558e-12 -1.66845e-15 1.66845e-15)
(1.09404e-11 -9.61311e-16 9.61311e-16)
(-3.05856e-12 -2.43985e-15 2.43985e-15)
(-8.34155e-12 -6.08668e-15 6.08668e-15)
(-3.16317e-12 -1.18815e-14 1.18815e-14)
(-3.07433e-12 -1.98066e-14 1.98066e-14)
(-4.63143e-13 -2.21685e-14 2.21685e-14)
(2.22283e-12 -2.22087e-14 2.22087e-14)
(1.00574e-12 -1.90576e-14 1.90576e-14)
(-5.85997e-12 -1.10967e-14 1.10967e-14)
(-8.48451e-12 -5.27927e-15 5.27927e-15)
(-2.40091e-12 -1.58638e-15 1.58638e-15)
(-6.71805e-13 0 0)
(1.38567e-12 0 0)
(7.9683e-12 0 0)
(1.82711e-12 0 0)
(-2.99715e-12 0 0)
(-1.13503e-11 0 0)
(-1.33467e-11 6.73757e-16 -6.73757e-16)
(2.67799e-12 3.28944e-15 -3.28944e-15)
(5.12107e-12 -1.67987e-16 1.67987e-16)
(-3.26226e-12 -5.62204e-15 5.62204e-15)
(-3.48751e-12 -5.04212e-15 5.04212e-15)
(6.66731e-12 -6.45961e-15 6.45961e-15)
(1.34009e-11 -1.91042e-15 1.91042e-15)
(5.52338e-12 6.41744e-16 -6.41744e-16)
(-7.03331e-12 3.70519e-15 -3.70519e-15)
(-1.25072e-11 8.70114e-16 -8.70114e-16)
(-1.24817e-11 0 0)
(-7.61869e-12 0 0)
(-1.46958e-11 0 0)
(-1.60241e-11 -1.16895e-15 1.16895e-15)
(2.64601e-12 -4.25474e-15 4.25474e-15)
(9.98028e-12 -1.58504e-15 1.58504e-15)
(9.63905e-12 -4.65388e-15 4.65388e-15)
(3.36797e-12 -9.60808e-15 9.60808e-15)
(-9.99266e-12 -1.64323e-14 1.64323e-14)
(-1.32989e-11 -1.76474e-14 1.76474e-14)
(-8.87768e-12 -1.59013e-14 1.59013e-14)
(4.60233e-12 -9.2343e-15 9.2343e-15)
(1.19453e-11 -4.45412e-15 4.45412e-15)
(6.58744e-12 -1.54517e-15 1.54517e-15)
(1.23339e-11 -4.9232e-16 4.9232e-16)
(1.13879e-11 -1.28112e-15 1.28112e-15)
(6.50493e-12 -3.89684e-15 3.89684e-15)
(3.43716e-12 -1.0354e-15 1.0354e-15)
(-4.1113e-12 0 0)
)
;

boundaryField
{
    wedge0
    {
        type            wedge;
    }
    wedge1
    {
        type            wedge;
    }
    wedge2
    {
        type            wedge;
    }
    wedge3
    {
        type            wedge;
    }
    outlet
    {
        type            zeroGradient;
    }
    defaultFaces
    {
        type            empty;
    }
}


// ************************************************************************* //
