/*--------------------------------*- C++ -*----------------------------------*\
| =========                 |                                                 |
| \\      /  F ield         | OpenFOAM: The Open Source CFD Toolbox           |
|  \\    /   O peration     | Version:  2312                                  |
|   \\  /    A nd           | Website:  www.openfoam.com                      |
|    \\/     M anipulation  |                                                 |
\*---------------------------------------------------------------------------*/
FoamFile
{
    version     2.0;
    format      ascii;
    arch        "LSB;label=32;scalar=64";
    class       volScalarField;
    location    "0.004";
    object      p;
}
// * * * * * * * * * * * * * * * * * * * * * * * * * * * * * * * * * * * * * //

dimensions      [1 -1 -2 0 0 0 0];

internalField   nonuniform List<scalar> 
100
(
110318
110318
110318
110318
110318
110318
110318
110318
110318
110318
110318
110318
110318
110318
110318
110318
110318
110318
110318
110317
110316
110313
110305
110287
110248
110168
110014
109738
109272
108536
107444
105921
103914
101407
98416.3
94992.9
91208.6
87148
82895.2
78530.5
74125.6
69742
65430.9
61234.2
57188
53318.4
49649.6
46203.9
43003.8
40077.4
37454.5
35174.9
33283.8
31819.5
30789.4
30146.8
29797.5
29631.3
29560.6
29533.1
29523.6
29521.5
29522.7
29525.7
29529.8
29534.6
29540.8
29550.2
29547.7
29409.6
28683.5
26480.1
22170.7
16680.6
12215.4
9936.45
9156.3
8944.14
8891.37
8878.66
8875.66
8874.96
8874.8
8874.77
8874.76
8874.76
8874.76
8874.76
8874.76
8874.76
8874.76
8874.76
8874.76
8874.76
8874.76
8874.76
8874.76
8874.76
8874.76
8874.76
)
;

boundaryField
{
    sides
    {
        type            zeroGradient;
    }
    empty
    {
        type            empty;
    }
}


// ************************************************************************* //
