/*--------------------------------*- C++ -*----------------------------------*\
| =========                 |                                                 |
| \\      /  F ield         | OpenFOAM: The Open Source CFD Toolbox           |
|  \\    /   O peration     | Version:  2212                                  |
|   \\  /    A nd           | Website:  www.openfoam.com                      |
|    \\/     M anipulation  |                                                 |
\*---------------------------------------------------------------------------*/
FoamFile
{
    version     2.0;
    format      ascii;
    arch        "LSB;label=32;scalar=64";
    class       volScalarField;
    location    "0.004";
    object      p;
}
// * * * * * * * * * * * * * * * * * * * * * * * * * * * * * * * * * * * * * //

dimensions      [1 -1 -2 0 0 0 0];

internalField   nonuniform List<scalar> 
100
(
99185.7
99185.7
99185.7
99185.7
99185.7
99185.7
99185.7
99185.7
99185.7
99185.7
99185.7
99185.7
99185.7
99185.7
99185.7
99185.7
99185.7
99185.7
99185.7
99185.7
99185.7
99185.7
99185.7
99185.7
99185.7
99185.7
99185.7
99185.7
99185.7
99185.7
99185.3
99180.9
99143.7
98931
98112.3
95971.1
92026.8
86567.7
80399.7
74224.6
68388.7
62984.8
58000.5
53397.8
49141.9
45201.6
41553.2
38218.4
35052.5
32190.8
29788.5
27625.6
26159.3
26420.3
27119.5
27990.5
28246.7
28456.1
28483.2
28339.4
28448.8
28382.8
27025.8
28084.8
29031.4
29411.3
29117.7
26759.4
25791.4
27238.8
31339.4
29282.9
14439.4
10001.5
9918.84
9918.52
9918.52
9918.52
9918.52
9918.52
9918.52
9918.52
9918.52
9918.52
9918.52
9918.52
9918.52
9918.52
9918.52
9918.52
9918.52
9918.52
9918.52
9918.52
9918.52
9918.52
9918.52
9918.52
9918.52
9918.52
)
;

boundaryField
{
    sides
    {
        type            zeroGradient;
    }
    empty
    {
        type            empty;
    }
}


// ************************************************************************* //
