/*--------------------------------*- C++ -*----------------------------------*\
| =========                 |                                                 |
| \\      /  F ield         | OpenFOAM: The Open Source CFD Toolbox           |
|  \\    /   O peration     | Version:  2312                                  |
|   \\  /    A nd           | Website:  www.openfoam.com                      |
|    \\/     M anipulation  |                                                 |
\*---------------------------------------------------------------------------*/
FoamFile
{
    version     2.0;
    format      ascii;
    arch        "LSB;label=32;scalar=64";
    class       volScalarField;
    location    "0.004";
    object      rho;
}
// * * * * * * * * * * * * * * * * * * * * * * * * * * * * * * * * * * * * * //

dimensions      [1 -3 0 0 0 0 0];

internalField   nonuniform List<scalar> 
100
(
1.16102
1.16102
1.16102
1.16102
1.16102
1.16102
1.16102
1.16102
1.16102
1.16102
1.16102
1.16102
1.16102
1.16102
1.16102
1.16102
1.16102
1.16102
1.16102
1.16102
1.16102
1.16101
1.161
1.16096
1.16086
1.16064
1.16016
1.1592
1.15739
1.15421
1.149
1.14102
1.12953
1.11399
1.09408
1.06982
1.04148
1.00959
0.974756
0.937671
0.899001
0.859363
0.819324
0.779353
0.739879
0.701287
0.66394
0.628224
0.594524
0.563302
0.535105
0.510535
0.4901
0.47387
0.461
0.449567
0.437246
0.422058
0.403126
0.380853
0.356623
0.332274
0.309554
0.289742
0.273529
0.261049
0.252008
0.245716
0.24081
0.234478
0.222126
0.200037
0.170738
0.143707
0.126866
0.119571
0.117112
0.116382
0.116177
0.116122
0.116107
0.116103
0.116102
0.116102
0.116102
0.116102
0.116102
0.116102
0.116102
0.116102
0.116102
0.116102
0.116102
0.116102
0.116102
0.116102
0.116102
0.116102
0.116102
0.116102
)
;

boundaryField
{
    sides
    {
        type            zeroGradient;
    }
    empty
    {
        type            empty;
    }
}


// ************************************************************************* //
