/*--------------------------------*- C++ -*----------------------------------*\
| =========                 |                                                 |
| \\      /  F ield         | OpenFOAM: The Open Source CFD Toolbox           |
|  \\    /   O peration     | Version:  2312                                  |
|   \\  /    A nd           | Website:  www.openfoam.com                      |
|    \\/     M anipulation  |                                                 |
\*---------------------------------------------------------------------------*/
FoamFile
{
    version     2.0;
    format      ascii;
    arch        "LSB;label=32;scalar=64";
    class       volScalarField;
    location    "0.004";
    object      rho;
}
// * * * * * * * * * * * * * * * * * * * * * * * * * * * * * * * * * * * * * //

dimensions      [1 -3 0 0 0 0 0];

internalField   nonuniform List<scalar> 
100
(
1.116
1.116
1.116
1.116
1.116
1.116
1.116
1.116
1.116
1.116
1.116
1.116
1.116
1.116
1.116
1.116
1.116
1.116
1.116
1.116
1.11599
1.11596
1.11591
1.11578
1.1155
1.11492
1.11381
1.11181
1.10843
1.10307
1.09511
1.08394
1.06915
1.05052
1.0281
1.00216
0.973141
0.941574
0.908021
0.873034
0.837121
0.800737
0.764277
0.728085
0.692476
0.657701
0.624012
0.591663
0.560926
0.532143
0.50569
0.482046
0.461739
0.445181
0.432363
0.422514
0.414112
0.405311
0.394587
0.381126
0.365002
0.347036
0.328507
0.310753
0.294887
0.281605
0.271186
0.263539
0.258215
0.253967
0.247523
0.232919
0.205446
0.16941
0.138046
0.120552
0.114067
0.112218
0.111749
0.111635
0.111608
0.111602
0.1116
0.1116
0.1116
0.1116
0.1116
0.1116
0.1116
0.1116
0.1116
0.1116
0.1116
0.1116
0.1116
0.1116
0.1116
0.1116
0.1116
0.1116
)
;

boundaryField
{
    sides
    {
        type            zeroGradient;
    }
    empty
    {
        type            empty;
    }
}


// ************************************************************************* //
