/*--------------------------------*- C++ -*----------------------------------*\
| =========                 |                                                 |
| \\      /  F ield         | OpenFOAM: The Open Source CFD Toolbox           |
|  \\    /   O peration     | Version:  2312                                  |
|   \\  /    A nd           | Website:  www.openfoam.com                      |
|    \\/     M anipulation  |                                                 |
\*---------------------------------------------------------------------------*/
FoamFile
{
    version     2.0;
    format      ascii;
    arch        "LSB;label=32;scalar=64";
    class       volScalarField;
    location    "0.004";
    object      T;
}
// * * * * * * * * * * * * * * * * * * * * * * * * * * * * * * * * * * * * * //

dimensions      [0 0 0 1 0 0 0];

internalField   nonuniform List<scalar> 
100
(
300
300
300
300
300
300
300
300
300
300
300
300
300
300
300
300
300
300
300
300
300
299.999
299.997
299.993
299.983
299.959
299.909
299.807
299.615
299.28
298.73
297.886
296.672
295.026
292.911
290.316
287.26
283.781
279.93
275.765
271.343
266.722
261.957
257.095
252.188
247.284
242.44
237.724
233.215
229.022
225.297
222.24
220.105
219.177
219.759
222.221
227.006
234.633
245.611
260.216
278.314
299.248
321.82
344.45
365.456
383.435
397.559
407.614
413.549
414.531
408.081
390.941
363.146
333.007
312.596
303.879
301.094
300.299
300.08
300.021
300.005
300.001
300
300
300
300
300
300
300
300
300
300
300
300
300
300
300
300
300
300
)
;

boundaryField
{
    sides
    {
        type            zeroGradient;
    }
    empty
    {
        type            empty;
    }
}


// ************************************************************************* //
