/*--------------------------------*- C++ -*----------------------------------*\
| =========                 |                                                 |
| \\      /  F ield         | OpenFOAM: The Open Source CFD Toolbox           |
|  \\    /   O peration     | Version:  2312                                  |
|   \\  /    A nd           | Website:  www.openfoam.com                      |
|    \\/     M anipulation  |                                                 |
\*---------------------------------------------------------------------------*/
FoamFile
{
    version     2.0;
    format      ascii;
    arch        "LSB;label=32;scalar=64";
    class       volScalarField;
    location    "0.004";
    object      T;
}
// * * * * * * * * * * * * * * * * * * * * * * * * * * * * * * * * * * * * * //

dimensions      [0 0 0 1 0 0 0];

internalField   nonuniform List<scalar> 
100
(
348.432
348.432
348.432
348.432
348.432
348.432
348.432
348.432
348.432
348.432
348.432
348.432
348.432
348.432
348.432
348.432
348.432
348.432
348.432
348.431
348.43
348.427
348.42
348.404
348.367
348.293
348.151
347.895
347.464
346.78
345.763
344.336
342.44
340.042
337.139
333.75
329.917
325.693
321.133
316.296
311.237
306.008
300.655
295.223
289.758
284.301
278.897
273.601
268.478
263.621
259.145
255.213
252.033
249.852
248.908
249.407
251.573
255.706
262.193
271.436
283.648
298.696
316.001
334.566
353.092
370.243
384.923
396.513
404.866
409.838
410.133
402.171
381.238
347.03
311.021
289.182
281.435
279.394
278.9
278.782
278.754
278.748
278.746
278.746
278.746
278.746
278.746
278.746
278.746
278.746
278.746
278.746
278.746
278.746
278.746
278.746
278.746
278.746
278.746
278.746
)
;

boundaryField
{
    sides
    {
        type            zeroGradient;
    }
    empty
    {
        type            empty;
    }
}


// ************************************************************************* //
