/*--------------------------------*- C++ -*----------------------------------*\
| =========                 |                                                 |
| \\      /  F ield         | OpenFOAM: The Open Source CFD Toolbox           |
|  \\    /   O peration     | Version:  2312                                  |
|   \\  /    A nd           | Website:  www.openfoam.com                      |
|    \\/     M anipulation  |                                                 |
\*---------------------------------------------------------------------------*/
FoamFile
{
    version     2.0;
    format      ascii;
    arch        "LSB;label=32;scalar=64";
    class       volScalarField;
    location    "0.004";
    object      thermo:e;
}
// * * * * * * * * * * * * * * * * * * * * * * * * * * * * * * * * * * * * * //

dimensions      [0 2 -2 0 0 0 0];

internalField   nonuniform List<scalar> 
100
(
247130
247130
247130
247130
247130
247130
247130
247130
247130
247130
247130
247130
247130
247130
247130
247130
247130
247130
247130
247129
247128
247126
247122
247110
247085
247034
246936
246759
246460
245987
245284
244296
242985
241326
239317
236971
234317
231392
228233
224880
221373
217745
214031
210260
206464
202672
198915
195231
191667
188285
185167
182427
180211
178690
178032
178380
179890
182771
187291
193725
202218
212671
224676
237536
250351
262201
272333
280324
286080
289506
289709
284224
269790
246160
221223
206064
200680
199261
198917
198835
198816
198811
198810
198810
198810
198810
198810
198810
198810
198810
198810
198810
198810
198810
198810
198810
198810
198810
198810
198810
)
;

boundaryField
{
    sides
    {
        type            zeroGradient;
    }
    empty
    {
        type            empty;
    }
}


// ************************************************************************* //
