/*--------------------------------*- C++ -*----------------------------------*\
| =========                 |                                                 |
| \\      /  F ield         | OpenFOAM: The Open Source CFD Toolbox           |
|  \\    /   O peration     | Version:  2212                                  |
|   \\  /    A nd           | Website:  www.openfoam.com                      |
|    \\/     M anipulation  |                                                 |
\*---------------------------------------------------------------------------*/
FoamFile
{
    version     2.0;
    format      ascii;
    arch        "LSB;label=32;scalar=64";
    class       volVectorField;
    location    "0.004";
    object      U;
}
// * * * * * * * * * * * * * * * * * * * * * * * * * * * * * * * * * * * * * //

dimensions      [0 1 -1 0 0 0 0];

internalField   nonuniform List<vector> 
100
(
(1.22311e-14 0 0)
(1.92259e-13 0 0)
(1.74153e-14 0 0)
(-3.2194e-13 0 0)
(-3.01838e-13 0 0)
(-2.88811e-13 0 0)
(-3.15222e-13 0 0)
(-3.41525e-13 0 0)
(-3.02264e-13 0 0)
(-5.13174e-13 0 0)
(-6.37102e-13 0 0)
(-5.71797e-13 0 0)
(-5.76991e-13 0 0)
(-2.86097e-13 0 0)
(-1.09631e-13 0 0)
(-1.08489e-13 0 0)
(-7.37821e-14 0 0)
(-1.91625e-13 0 0)
(-6.74597e-14 0 0)
(2.43738e-13 0 0)
(8.05861e-14 0 0)
(4.80436e-14 0 0)
(-8.39415e-14 0 0)
(-1.3672e-13 0 0)
(2.10862e-12 0 0)
(1.29407e-10 0 0)
(6.10143e-09 0 0)
(2.20817e-07 0 0)
(6.04921e-06 0 0)
(0.00012335 0 0)
(0.00183825 0 0)
(0.0196766 0 0)
(0.149363 0 0)
(0.80145 0 0)
(3.0753 0 0)
(8.69218 0 0)
(18.9412 0 0)
(33.5949 0 0)
(51.171 0 0)
(70.0747 0 0)
(89.3086 0 0)
(108.461 0 0)
(127.434 0 0)
(146.236 0 0)
(164.9 0 0)
(183.442 0 0)
(201.887 0 0)
(220.385 0 0)
(238.168 0 0)
(256.206 0 0)
(273.796 0 0)
(288.734 0 0)
(299.142 0 0)
(296.522 0 0)
(291.567 0 0)
(285.152 0 0)
(283.597 0 0)
(283.04 0 0)
(283.009 0 0)
(283.853 0 0)
(285.937 0 0)
(284.706 0 0)
(276.536 0 0)
(284.465 0 0)
(293.1 0 0)
(297.423 0 0)
(290.398 0 0)
(269.099 0 0)
(259.317 0 0)
(280.677 0 0)
(312.903 0 0)
(271.542 0 0)
(105.013 0 0)
(6.14689 0 0)
(0.0504709 0 0)
(0.000114359 0 0)
(1.10852e-07 0 0)
(6.16075e-11 0 0)
(3.44085e-14 0 0)
(-1.41578e-13 0 0)
(1.00162e-14 0 0)
(8.80782e-14 0 0)
(6.38743e-14 0 0)
(4.57397e-14 0 0)
(7.28922e-14 0 0)
(-4.70576e-14 0 0)
(-6.96543e-14 0 0)
(7.0972e-14 0 0)
(1.01622e-14 0 0)
(9.05524e-14 0 0)
(1.33484e-14 0 0)
(-1.10943e-13 0 0)
(-1.04797e-13 0 0)
(-3.06772e-13 0 0)
(-3.77271e-13 0 0)
(-2.98147e-13 0 0)
(-9.05099e-14 0 0)
(-3.05486e-13 0 0)
(-6.06392e-13 0 0)
(-3.62008e-13 0 0)
)
;

boundaryField
{
    sides
    {
        type            zeroGradient;
    }
    empty
    {
        type            empty;
    }
}


// ************************************************************************* //
