/*--------------------------------*- C++ -*----------------------------------*\
| =========                 |                                                 |
| \\      /  F ield         | OpenFOAM: The Open Source CFD Toolbox           |
|  \\    /   O peration     | Version:  2312                                  |
|   \\  /    A nd           | Website:  www.openfoam.com                      |
|    \\/     M anipulation  |                                                 |
\*---------------------------------------------------------------------------*/
FoamFile
{
    version     2.0;
    format      ascii;
    arch        "LSB;label=32;scalar=64";
    class       volVectorField;
    location    "0.004";
    object      U;
}
// * * * * * * * * * * * * * * * * * * * * * * * * * * * * * * * * * * * * * //

dimensions      [0 1 -1 0 0 0 0];

internalField   nonuniform List<vector> 
100
(
(1.08193e-13 0 0)
(1.00731e-13 0 0)
(2.11957e-13 0 0)
(8.27836e-14 0 0)
(6.28593e-15 0 0)
(3.75074e-13 0 0)
(8.74828e-13 0 0)
(3.17585e-12 0 0)
(1.76135e-11 0 0)
(1.0313e-10 0 0)
(5.76645e-10 0 0)
(3.05496e-09 0 0)
(1.53073e-08 0 0)
(7.25302e-08 0 0)
(3.2501e-07 0 0)
(1.37734e-06 0 0)
(5.51989e-06 0 0)
(2.09176e-05 0 0)
(7.49375e-05 0 0)
(0.000253733 0 0)
(0.000811697 0 0)
(0.00245226 0 0)
(0.0069932 0 0)
(0.0188137 0 0)
(0.0477186 0 0)
(0.114034 0 0)
(0.256594 0 0)
(0.543408 0 0)
(1.08294 0 0)
(2.03157 0 0)
(3.59136 0 0)
(5.99392 0 0)
(9.47142 0 0)
(14.2221 0 0)
(20.3819 0 0)
(28.0097 0 0)
(37.0897 0 0)
(47.5462 0 0)
(59.2627 0 0)
(72.1016 0 0)
(85.9182 0 0)
(100.566 0 0)
(115.904 0 0)
(131.803 0 0)
(148.128 0 0)
(164.736 0 0)
(181.459 0 0)
(198.089 0 0)
(214.364 0 0)
(229.919 0 0)
(244.272 0 0)
(256.83 0 0)
(266.998 0 0)
(274.411 0 0)
(279.173 0 0)
(281.85 0 0)
(283.19 0 0)
(283.835 0 0)
(284.158 0 0)
(284.345 0 0)
(284.474 0 0)
(284.577 0 0)
(284.664 0 0)
(284.738 0 0)
(284.801 0 0)
(284.854 0 0)
(284.852 0 0)
(284.444 0 0)
(282.066 0 0)
(273.351 0 0)
(250.696 0 0)
(207.068 0 0)
(143.968 0 0)
(77.9336 0 0)
(31.6911 0 0)
(10.3454 0 0)
(3.01451 0 0)
(0.834273 0 0)
(0.223907 0 0)
(0.0584893 0 0)
(0.0148476 0 0)
(0.00365244 0 0)
(0.000868145 0 0)
(0.000198847 0 0)
(4.37847e-05 0 0)
(9.2488e-06 0 0)
(1.87067e-06 0 0)
(3.61694e-07 0 0)
(6.67531e-08 0 0)
(1.17438e-08 0 0)
(1.96718e-09 0 0)
(3.1337e-10 0 0)
(4.74424e-11 0 0)
(6.87889e-12 0 0)
(1.00881e-12 0 0)
(8.17711e-14 0 0)
(-3.27374e-13 0 0)
(-4.85173e-13 0 0)
(-4.23446e-13 0 0)
(-2.58403e-13 0 0)
)
;

boundaryField
{
    sides
    {
        type            zeroGradient;
    }
    empty
    {
        type            empty;
    }
}


// ************************************************************************* //
