/*--------------------------------*- C++ -*----------------------------------*\
| =========                 |                                                 |
| \\      /  F ield         | OpenFOAM: The Open Source CFD Toolbox           |
|  \\    /   O peration     | Version:  2312                                  |
|   \\  /    A nd           | Website:  www.openfoam.com                      |
|    \\/     M anipulation  |                                                 |
\*---------------------------------------------------------------------------*/
FoamFile
{
    version     2.0;
    format      ascii;
    arch        "LSB;label=32;scalar=64";
    class       volVectorField;
    location    "0.004";
    object      U;
}
// * * * * * * * * * * * * * * * * * * * * * * * * * * * * * * * * * * * * * //

dimensions      [0 1 -1 0 0 0 0];

internalField   nonuniform List<vector> 
100
(
(2.56155e-13 0 0)
(2.08829e-13 0 0)
(3.64646e-13 0 0)
(2.53976e-13 0 0)
(6.11833e-13 0 0)
(3.18416e-12 0 0)
(1.63644e-11 0 0)
(9.08247e-11 0 0)
(4.86747e-10 0 0)
(2.47703e-09 0 0)
(1.19615e-08 0 0)
(5.48e-08 0 0)
(2.3819e-07 0 0)
(9.82221e-07 0 0)
(3.84252e-06 0 0)
(1.42592e-05 0 0)
(5.01848e-05 0 0)
(0.000167472 0 0)
(0.000529749 0 0)
(0.00158781 0 0)
(0.0045075 0 0)
(0.0121134 0 0)
(0.0307996 0 0)
(0.0740489 0 0)
(0.16824 0 0)
(0.361044 0 0)
(0.73159 0 0)
(1.39979 0 0)
(2.53029 0 0)
(4.32634 0 0)
(7.01105 0 0)
(10.7989 0 0)
(15.8656 0 0)
(22.3245 0 0)
(30.218 0 0)
(39.5216 0 0)
(50.1564 0 0)
(62.0093 0 0)
(74.9533 0 0)
(88.8553 0 0)
(103.585 0 0)
(119.02 0 0)
(135.044 0 0)
(151.545 0 0)
(168.41 0 0)
(185.532 0 0)
(202.78 0 0)
(219.996 0 0)
(236.97 0 0)
(253.418 0 0)
(268.962 0 0)
(283.095 0 0)
(295.223 0 0)
(304.804 0 0)
(311.595 0 0)
(315.831 0 0)
(318.142 0 0)
(319.269 0 0)
(319.792 0 0)
(320.044 0 0)
(320.188 0 0)
(320.289 0 0)
(320.372 0 0)
(320.444 0 0)
(320.508 0 0)
(320.568 0 0)
(320.643 0 0)
(320.739 0 0)
(320.582 0 0)
(318.446 0 0)
(308.933 0 0)
(282.348 0 0)
(229.809 0 0)
(153.578 0 0)
(76.13 0 0)
(26.8095 0 0)
(7.42867 0 0)
(1.85517 0 0)
(0.445678 0 0)
(0.104846 0 0)
(0.0242021 0 0)
(0.00547029 0 0)
(0.00120702 0 0)
(0.000259196 0 0)
(5.40113e-05 0 0)
(1.08925e-05 0 0)
(2.12082e-06 0 0)
(3.97807e-07 0 0)
(7.17449e-08 0 0)
(1.24195e-08 0 0)
(2.06035e-09 0 0)
(3.26983e-10 0 0)
(4.95759e-11 0 0)
(7.19189e-12 0 0)
(9.23957e-13 0 0)
(4.00042e-14 0 0)
(7.17101e-15 0 0)
(1.34409e-13 0 0)
(7.91369e-14 0 0)
(1.26896e-13 0 0)
)
;

boundaryField
{
    sides
    {
        type            zeroGradient;
    }
    empty
    {
        type            empty;
    }
}


// ************************************************************************* //
