/*--------------------------------*- C++ -*----------------------------------*\
| =========                 |                                                 |
| \\      /  F ield         | OpenFOAM: The Open Source CFD Toolbox           |
|  \\    /   O peration     | Version:  2312                                  |
|   \\  /    A nd           | Website:  www.openfoam.com                      |
|    \\/     M anipulation  |                                                 |
\*---------------------------------------------------------------------------*/
FoamFile
{
    version     2.0;
    format      ascii;
    arch        "LSB;label=32;scalar=64";
    class       volScalarField;
    location    "0.061";
    object      p;
}
// * * * * * * * * * * * * * * * * * * * * * * * * * * * * * * * * * * * * * //

dimensions      [1 -1 -2 0 0 0 0];

internalField   nonuniform List<scalar> 
100
(
28502.1
28316.3
28262.7
27979.2
27964.8
27650.6
27661
27347.1
27338
27082
26983.7
26864.3
26592.1
26695
26167.8
26563.6
25727.9
26446.5
25301.9
26310.5
24925.2
26121.8
24627.2
25859.5
24417.8
25527.1
24281.3
25152.3
24184.1
24774.1
24090.2
24425.8
23976.4
24124
23837.1
23869.2
23680.2
23653
23517.8
23466.6
23360.8
23303.9
23216.5
23162.4
23089
23041.5
22980.7
22941.7
22892.6
22863
22825.1
22805.1
22777.7
22767
22749.4
22747.6
22739.3
22746.7
22749.7
22771.4
22796.7
22855.4
22947
23124.1
23421.9
23930.5
24698.5
25757.7
27008.4
28307.7
29464.3
30395.1
31057.9
31516.7
31804.8
32001.4
32120.1
32212.7
32270.3
32327.3
32365.8
32412.4
32446.6
32491.5
32526.3
32572.3
32609.2
32657.1
32696.1
32745.9
32786.4
32837.6
32878.3
32930.2
32970.1
33021.9
33060.1
33110.9
33148
33190.3
)
;

boundaryField
{
    sides
    {
        type            zeroGradient;
    }
    empty
    {
        type            empty;
    }
}


// ************************************************************************* //
