/*--------------------------------*- C++ -*----------------------------------*\
| =========                 |                                                 |
| \\      /  F ield         | OpenFOAM: The Open Source CFD Toolbox           |
|  \\    /   O peration     | Version:  2312                                  |
|   \\  /    A nd           | Website:  www.openfoam.com                      |
|    \\/     M anipulation  |                                                 |
\*---------------------------------------------------------------------------*/
FoamFile
{
    version     2.0;
    format      ascii;
    arch        "LSB;label=32;scalar=64";
    class       volScalarField;
    location    "0.061";
    object      rho;
}
// * * * * * * * * * * * * * * * * * * * * * * * * * * * * * * * * * * * * * //

dimensions      [1 -3 0 0 0 0 0];

internalField   nonuniform List<scalar> 
100
(
0.438942
0.438409
0.437233
0.436109
0.43479
0.433565
0.432221
0.430895
0.429615
0.428163
0.427019
0.425416
0.424451
0.422693
0.421906
0.420025
0.419358
0.41744
0.416772
0.414945
0.414118
0.412518
0.411382
0.410095
0.408576
0.407583
0.405726
0.404901
0.402846
0.402013
0.399925
0.398945
0.396947
0.395772
0.39392
0.392593
0.390899
0.38951
0.387973
0.386622
0.385252
0.384019
0.382836
0.381776
0.380802
0.379951
0.379202
0.378575
0.378055
0.377652
0.377355
0.377166
0.377076
0.377083
0.377178
0.377361
0.377626
0.377979
0.378428
0.379006
0.379776
0.380867
0.382521
0.385168
0.389478
0.396308
0.406362
0.419593
0.434814
0.450048
0.463476
0.474139
0.482023
0.487651
0.491687
0.494698
0.497086
0.499115
0.50094
0.502654
0.504302
0.505909
0.507479
0.509013
0.510502
0.511942
0.513322
0.514638
0.515882
0.517053
0.51815
0.519171
0.520121
0.520999
0.521815
0.522567
0.523266
0.523916
0.524526
0.524959
)
;

boundaryField
{
    sides
    {
        type            zeroGradient;
    }
    empty
    {
        type            empty;
    }
}


// ************************************************************************* //
