/*--------------------------------*- C++ -*----------------------------------*\
| =========                 |                                                 |
| \\      /  F ield         | OpenFOAM: The Open Source CFD Toolbox           |
|  \\    /   O peration     | Version:  2312                                  |
|   \\  /    A nd           | Website:  www.openfoam.com                      |
|    \\/     M anipulation  |                                                 |
\*---------------------------------------------------------------------------*/
FoamFile
{
    version     2.0;
    format      ascii;
    arch        "LSB;label=32;scalar=64";
    class       volScalarField;
    location    "0.061";
    object      T;
}
// * * * * * * * * * * * * * * * * * * * * * * * * * * * * * * * * * * * * * //

dimensions      [0 0 0 1 0 0 0];

internalField   nonuniform List<scalar> 
100
(
225.7
224.502
224.68
222.999
223.56
221.673
222.446
220.599
221.183
219.854
219.643
219.495
217.765
219.518
215.583
219.823
213.247
220.21
211.017
220.395
209.208
220.102
208.082
219.179
207.729
217.695
208.019
215.92
208.667
214.201
209.375
212.814
209.949
211.869
210.334
211.329
210.564
211.073
210.697
210.973
210.769
210.931
210.789
210.881
210.751
210.789
210.647
210.638
210.476
210.428
210.245
210.166
209.964
209.862
209.646
209.528
209.304
209.177
208.956
208.837
208.645
208.583
208.513
208.678
209.028
209.886
211.261
213.374
215.903
218.63
220.969
222.824
223.959
224.644
224.837
224.85
224.6
224.331
223.913
223.545
223.079
222.691
222.236
221.873
221.463
221.152
220.807
220.566
220.297
220.133
219.938
219.849
219.719
219.695
219.617
219.646
219.606
219.671
219.661
219.76
)
;

boundaryField
{
    sides
    {
        type            zeroGradient;
    }
    empty
    {
        type            empty;
    }
}


// ************************************************************************* //
