/*--------------------------------*- C++ -*----------------------------------*\
| =========                 |                                                 |
| \\      /  F ield         | OpenFOAM: The Open Source CFD Toolbox           |
|  \\    /   O peration     | Version:  2212                                  |
|   \\  /    A nd           | Website:  www.openfoam.com                      |
|    \\/     M anipulation  |                                                 |
\*---------------------------------------------------------------------------*/
FoamFile
{
    version     2.0;
    format      ascii;
    arch        "LSB;label=32;scalar=64";
    class       volScalarField;
    location    "0.003";
    object      G;
}
// * * * * * * * * * * * * * * * * * * * * * * * * * * * * * * * * * * * * * //

dimensions      [1 0 -3 0 0 0 0];

internalField   nonuniform List<scalar> 
100
(
1829.28
1828.65
1827.95
1827.18
1826.34
1825.42
1824.41
1823.3
1822.09
1820.76
1819.31
1817.73
1816
1814.11
1812.05
1809.8
1807.34
1804.66
1801.74
1798.55
1795.07
1791.27
1787.13
1782.62
1777.69
1772.32
1766.46
1760.07
1753.1
1745.51
1737.23
1728.22
1718.41
1707.78
1696.3
1684
1670.94
1657.29
1643.29
1629.3
1615.75
1603.18
1592.19
1583.44
1577.6
1575.39
1577.51
1584.64
1597.47
1616.66
1642.83
1676.56
1718.39
1768.72
1827.82
1895.68
1971.88
2055.4
2144.24
2235.12
2323.24
2402.43
2465.97
2507.89
2524.48
2515.82
2486.6
2445.01
2399.17
2354.08
2311.7
2272.53
2236.51
2203.45
2173.13
2145.32
2119.83
2096.45
2075.02
2055.37
2037.35
2020.84
2005.7
1991.83
1979.12
1967.47
1956.8
1947.02
1938.07
1929.87
1922.37
1915.51
1909.24
1903.5
1898.27
1893.49
1889.13
1885.16
1881.55
1878.28
)
;

boundaryField
{
    sides
    {
        type            myMarshakRadiation;
        refValue        nonuniform List<scalar> 2(1837.22 1837.21);
        refGradient     uniform 0;
        valueFraction   nonuniform List<scalar> 2(0.0361446 0.0361446);
        source          uniform 0;
        value           nonuniform List<scalar> 2(1876.79 1829.57);
    }
    empty
    {
        type            empty;
    }
}


// ************************************************************************* //
