/*--------------------------------*- C++ -*----------------------------------*\
| =========                 |                                                 |
| \\      /  F ield         | OpenFOAM: The Open Source CFD Toolbox           |
|  \\    /   O peration     | Version:  2212                                  |
|   \\  /    A nd           | Website:  www.openfoam.com                      |
|    \\/     M anipulation  |                                                 |
\*---------------------------------------------------------------------------*/
FoamFile
{
    version     2.0;
    format      ascii;
    arch        "LSB;label=32;scalar=64";
    class       volScalarField;
    location    "0.003";
    object      p;
}
// * * * * * * * * * * * * * * * * * * * * * * * * * * * * * * * * * * * * * //

dimensions      [1 -1 -2 0 0 0 0];

internalField   nonuniform List<scalar> 
100
(
99185.7
99185.7
99185.7
99185.7
99185.7
99185.7
99185.7
99185.7
99185.7
99185.7
99185.7
99185.7
99185.7
99185.7
99185.7
99185.7
99185.7
99185.7
99185.7
99185.7
99185.7
99185.7
99185.7
99185.6
99185.4
99184.9
99183.3
99179.1
99168.3
99142.6
99084.9
98963.7
98726.2
98292.6
97556.8
96396.4
94693.5
92360.5
89361.3
85720.2
81516.2
76866.8
71908.7
66781.1
61617.1
56532.5
51628.9
46995.8
42714.6
38868.7
35543
32834.1
30827.1
29538.8
28854.6
28566.2
28464.4
28432.4
28417.1
28396.6
28357.3
28274.9
28077.6
27562.2
26294.4
23732.1
19842
15635.2
12495.4
10866.9
10229.7
10015.9
9948.41
9927.59
9921.25
9919.35
9918.79
9918.62
9918.58
9918.56
9918.55
9918.55
9918.55
9918.54
9918.54
9918.54
9918.54
9918.54
9918.54
9918.53
9918.53
9918.53
9918.53
9918.53
9918.53
9918.53
9918.53
9918.53
9918.53
9918.52
)
;

boundaryField
{
    sides
    {
        type            zeroGradient;
    }
    empty
    {
        type            empty;
    }
}


// ************************************************************************* //
