/*--------------------------------*- C++ -*----------------------------------*\
| =========                 |                                                 |
| \\      /  F ield         | OpenFOAM: The Open Source CFD Toolbox           |
|  \\    /   O peration     | Version:  2212                                  |
|   \\  /    A nd           | Website:  www.openfoam.com                      |
|    \\/     M anipulation  |                                                 |
\*---------------------------------------------------------------------------*/
FoamFile
{
    version     2.0;
    format      ascii;
    arch        "LSB;label=32;scalar=64";
    class       volScalarField;
    location    "0.003";
    object      thermo:e;
}
// * * * * * * * * * * * * * * * * * * * * * * * * * * * * * * * * * * * * * //

dimensions      [0 2 -2 0 0 0 0];

internalField   nonuniform List<scalar> 
100
(
213576
213576
213576
213576
213576
213576
213576
213576
213576
213576
213576
213576
213576
213576
213576
213576
213576
213576
213576
213576
213576
213576
213576
213576
213576
213576
213575
213572
213566
213550
213514
213440
213294
213027
212573
211856
210797
209331
207420
205054
202253
199059
195530
191732
187737
183618
179454
175333
171365
167701
164552
162241
161226
162116
165615
172223
182210
195530
211620
229317
246978
262800
275216
283007
284980
279644
266174
247148
229728
219594
215528
214181
213762
213633
213594
213582
213579
213578
213577
213577
213577
213577
213577
213577
213577
213577
213577
213577
213577
213577
213577
213577
213577
213577
213577
213577
213577
213576
213576
213576
)
;

boundaryField
{
    sides
    {
        type            zeroGradient;
    }
    empty
    {
        type            empty;
    }
}


// ************************************************************************* //
