/*--------------------------------*- C++ -*----------------------------------*\
| =========                 |                                                 |
| \\      /  F ield         | OpenFOAM: The Open Source CFD Toolbox           |
|  \\    /   O peration     | Version:  2212                                  |
|   \\  /    A nd           | Website:  www.openfoam.com                      |
|    \\/     M anipulation  |                                                 |
\*---------------------------------------------------------------------------*/
FoamFile
{
    version     2.0;
    format      ascii;
    arch        "LSB;label=32;scalar=64";
    class       volVectorField;
    location    "0.003";
    object      U;
}
// * * * * * * * * * * * * * * * * * * * * * * * * * * * * * * * * * * * * * //

dimensions      [0 1 -1 0 0 0 0];

internalField   nonuniform List<vector> 
100
(
(5.20072e-07 0 0)
(6.96304e-07 0 0)
(8.57255e-07 0 0)
(1.00785e-06 0 0)
(1.15247e-06 0 0)
(1.29518e-06 0 0)
(1.43965e-06 0 0)
(1.58914e-06 0 0)
(1.74654e-06 0 0)
(1.91438e-06 0 0)
(2.09487e-06 0 0)
(2.29006e-06 0 0)
(2.50185e-06 0 0)
(2.73218e-06 0 0)
(2.98332e-06 0 0)
(3.25898e-06 0 0)
(3.56903e-06 0 0)
(3.94847e-06 0 0)
(4.53207e-06 0 0)
(5.83408e-06 0 0)
(9.74579e-06 0 0)
(2.29155e-05 0 0)
(6.75974e-05 0 0)
(0.000214541 0 0)
(0.000676841 0 0)
(0.00206091 0 0)
(0.00599223 0 0)
(0.01656 0 0)
(0.0433779 0 0)
(0.107462 0 0)
(0.251272 0 0)
(0.553539 0 0)
(1.14714 0 0)
(2.23433 0 0)
(4.09001 0 0)
(7.04394 0 0)
(11.4403 0 0)
(17.5849 0 0)
(25.6971 0 0)
(35.8844 0 0)
(48.1419 0 0)
(62.3726 0 0)
(78.4147 0 0)
(96.0632 0 0)
(115.084 0 0)
(135.226 0 0)
(156.203 0 0)
(177.661 0 0)
(199.134 0 0)
(219.965 0 0)
(239.247 0 0)
(255.796 0 0)
(268.441 0 0)
(276.647 0 0)
(281.015 0 0)
(282.918 0 0)
(283.653 0 0)
(283.931 0 0)
(284.042 0 0)
(284.031 0 0)
(283.797 0 0)
(283.027 0 0)
(280.796 0 0)
(274.583 0 0)
(259.195 0 0)
(227.771 0 0)
(176.876 0 0)
(113.621 0 0)
(56.976 0 0)
(22.4886 0 0)
(7.61729 0 0)
(2.41032 0 0)
(0.74188 0 0)
(0.224548 0 0)
(0.066849 0 0)
(0.0195762 0 0)
(0.00569551 0 0)
(0.00171639 0 0)
(0.000600906 0 0)
(0.000289904 0 0)
(0.000198177 0 0)
(0.000164786 0 0)
(0.000146979 0 0)
(0.000133761 0 0)
(0.000122361 0 0)
(0.000112063 0 0)
(0.000102643 0 0)
(9.3996e-05 0 0)
(8.60468e-05 0 0)
(7.87257e-05 0 0)
(7.19637e-05 0 0)
(6.56872e-05 0 0)
(5.98147e-05 0 0)
(5.42517e-05 0 0)
(4.88867e-05 0 0)
(4.3586e-05 0 0)
(3.81887e-05 0 0)
(3.25016e-05 0 0)
(2.6293e-05 0 0)
(1.92768e-05 0 0)
)
;

boundaryField
{
    sides
    {
        type            zeroGradient;
    }
    empty
    {
        type            empty;
    }
}


// ************************************************************************* //
