/*--------------------------------*- C++ -*----------------------------------*\
| =========                 |                                                 |
| \\      /  F ield         | OpenFOAM: The Open Source CFD Toolbox           |
|  \\    /   O peration     | Version:  2312                                  |
|   \\  /    A nd           | Website:  www.openfoam.com                      |
|    \\/     M anipulation  |                                                 |
\*---------------------------------------------------------------------------*/
FoamFile
{
    version     2.0;
    format      ascii;
    arch        "LSB;label=32;scalar=64";
    class       volScalarField;
    location    "0.005";
    object      p;
}
// * * * * * * * * * * * * * * * * * * * * * * * * * * * * * * * * * * * * * //

dimensions      [1 -1 -2 0 0 0 0];

internalField   nonuniform List<scalar> 
100
(
110318
110318
110318
110318
110318
110318
110318
110318
110318
110318
110318
110318
110318
110317
110317
110315
110312
110304
110288
110256
110194
110080
109885
109567
109073
108347
107333
105986
104275
102192
99748.6
96976.5
93920.4
90633.3
87170.4
83584.4
79924.7
76235
72552.9
68910.3
65333.3
61844.4
58461.7
55199
52068.5
49081.4
46248.3
43580.1
41091.5
38796.4
36715
34872.5
33297.4
32017
31045
30367.7
29945.6
29709.7
29588.8
29531.8
29507
29497
29493.9
29494.1
29496.1
29499.3
29503.3
29507.7
29512.4
29517.3
29522.3
29527.9
29536.3
29549.5
29540.1
29329.6
28354
25683.2
20952.5
15505.6
11519.8
9676.75
9084.46
8926.74
8887.41
8877.8
8875.48
8874.93
8874.8
8874.76
8874.76
8874.76
8874.76
8874.76
8874.76
8874.76
8874.76
8874.76
8874.76
8874.76
)
;

boundaryField
{
    sides
    {
        type            zeroGradient;
    }
    empty
    {
        type            empty;
    }
}


// ************************************************************************* //
