/*--------------------------------*- C++ -*----------------------------------*\
| =========                 |                                                 |
| \\      /  F ield         | OpenFOAM: The Open Source CFD Toolbox           |
|  \\    /   O peration     | Version:  2212                                  |
|   \\  /    A nd           | Website:  www.openfoam.com                      |
|    \\/     M anipulation  |                                                 |
\*---------------------------------------------------------------------------*/
FoamFile
{
    version     2.0;
    format      ascii;
    arch        "LSB;label=32;scalar=64";
    class       volScalarField;
    location    "0.005";
    object      p;
}
// * * * * * * * * * * * * * * * * * * * * * * * * * * * * * * * * * * * * * //

dimensions      [1 -1 -2 0 0 0 0];

internalField   nonuniform List<scalar> 
100
(
99185.7
99185.7
99185.7
99185.7
99185.7
99185.7
99185.7
99185.7
99185.7
99185.7
99185.7
99185.7
99185.7
99185.7
99185.7
99185.7
99185.7
99185.7
99185.7
99185.7
99185.7
99185.7
99185.7
99185.7
99185.7
99185.7
99185.6
99183.9
99170
99084.8
98717.7
97605
95201.4
91347.7
86463.1
81189.3
75991.2
71072.1
66473.8
62178.2
58155.8
54381.5
50835.4
47502.5
44368.7
41419.9
38663.5
36073.3
33622.9
31412.8
29430.2
27650
26245.2
26437.8
27001.1
27917.4
28405.3
28398.5
28397
28333.1
28224.6
28150.7
28133.4
28017.6
28388.2
28831
27888
27584.1
27632.3
27618.1
28532.6
29784.2
29816.7
27296.4
26309.8
28374.4
30394.8
23672.7
11290.4
9932.74
9918.56
9918.52
9918.52
9918.52
9918.52
9918.52
9918.52
9918.52
9918.52
9918.52
9918.52
9918.52
9918.52
9918.52
9918.52
9918.52
9918.52
9918.52
9918.52
9918.52
)
;

boundaryField
{
    sides
    {
        type            zeroGradient;
    }
    empty
    {
        type            empty;
    }
}


// ************************************************************************* //
