/*--------------------------------*- C++ -*----------------------------------*\
| =========                 |                                                 |
| \\      /  F ield         | OpenFOAM: The Open Source CFD Toolbox           |
|  \\    /   O peration     | Version:  2312                                  |
|   \\  /    A nd           | Website:  www.openfoam.com                      |
|    \\/     M anipulation  |                                                 |
\*---------------------------------------------------------------------------*/
FoamFile
{
    version     2.0;
    format      ascii;
    arch        "LSB;label=32;scalar=64";
    class       volScalarField;
    location    "0.005";
    object      rho;
}
// * * * * * * * * * * * * * * * * * * * * * * * * * * * * * * * * * * * * * //

dimensions      [1 -3 0 0 0 0 0];

internalField   nonuniform List<scalar> 
100
(
1.16102
1.16102
1.16102
1.16102
1.16102
1.16102
1.16102
1.16102
1.16102
1.16102
1.16102
1.16102
1.16102
1.16102
1.16102
1.16102
1.16101
1.161
1.16097
1.1609
1.16074
1.16043
1.15983
1.15874
1.15686
1.15381
1.1491
1.14225
1.13277
1.1203
1.10462
1.0857
1.06369
1.03885
1.01158
0.982291
0.951428
0.91941
0.886622
0.853422
0.820107
0.786938
0.754149
0.721946
0.690523
0.660065
0.630782
0.602867
0.57657
0.552192
0.53009
0.510665
0.494304
0.481182
0.471088
0.463266
0.456456
0.449199
0.440093
0.428093
0.412711
0.394136
0.373203
0.35117
0.329418
0.309179
0.291338
0.276392
0.264467
0.255408
0.248866
0.244387
0.241454
0.239305
0.23632
0.229145
0.213331
0.187583
0.158126
0.135119
0.122924
0.118221
0.116717
0.116275
0.11615
0.116115
0.116105
0.116103
0.116102
0.116102
0.116102
0.116102
0.116102
0.116102
0.116102
0.116102
0.116102
0.116102
0.116102
0.116102
)
;

boundaryField
{
    sides
    {
        type            zeroGradient;
    }
    empty
    {
        type            empty;
    }
}


// ************************************************************************* //
