/*--------------------------------*- C++ -*----------------------------------*\
| =========                 |                                                 |
| \\      /  F ield         | OpenFOAM: The Open Source CFD Toolbox           |
|  \\    /   O peration     | Version:  2312                                  |
|   \\  /    A nd           | Website:  www.openfoam.com                      |
|    \\/     M anipulation  |                                                 |
\*---------------------------------------------------------------------------*/
FoamFile
{
    version     2.0;
    format      ascii;
    arch        "LSB;label=32;scalar=64";
    class       volScalarField;
    location    "0.005";
    object      rho;
}
// * * * * * * * * * * * * * * * * * * * * * * * * * * * * * * * * * * * * * //

dimensions      [1 -3 0 0 0 0 0];

internalField   nonuniform List<scalar> 
100
(
1.116
1.116
1.116
1.116
1.116
1.116
1.116
1.116
1.116
1.116
1.116
1.116
1.116
1.116
1.11599
1.11598
1.11596
1.1159
1.11579
1.11555
1.1151
1.11428
1.11287
1.11056
1.10698
1.1017
1.09431
1.08444
1.07185
1.05642
1.03819
1.01733
0.994122
0.968892
0.942007
0.913823
0.884682
0.854897
0.824743
0.794464
0.764267
0.734341
0.704849
0.675921
0.647688
0.620275
0.593809
0.568431
0.544323
0.52167
0.500726
0.4818
0.46524
0.451369
0.440347
0.431994
0.425774
0.420746
0.415797
0.409885
0.402134
0.392035
0.37944
0.364671
0.348442
0.331714
0.315479
0.300592
0.287652
0.276965
0.268578
0.26233
0.257934
0.255037
0.253104
0.250719
0.24417
0.227445
0.197501
0.161394
0.132871
0.118439
0.113448
0.112064
0.111713
0.111627
0.111607
0.111602
0.1116
0.1116
0.1116
0.1116
0.1116
0.1116
0.1116
0.1116
0.1116
0.1116
0.1116
0.1116
)
;

boundaryField
{
    sides
    {
        type            zeroGradient;
    }
    empty
    {
        type            empty;
    }
}


// ************************************************************************* //
