/*--------------------------------*- C++ -*----------------------------------*\
| =========                 |                                                 |
| \\      /  F ield         | OpenFOAM: The Open Source CFD Toolbox           |
|  \\    /   O peration     | Version:  2212                                  |
|   \\  /    A nd           | Website:  www.openfoam.com                      |
|    \\/     M anipulation  |                                                 |
\*---------------------------------------------------------------------------*/
FoamFile
{
    version     2.0;
    format      ascii;
    arch        "LSB;label=32;scalar=64";
    class       volScalarField;
    location    "0.005";
    object      T;
}
// * * * * * * * * * * * * * * * * * * * * * * * * * * * * * * * * * * * * * //

dimensions      [0 0 0 1 0 0 0];

internalField   nonuniform List<scalar> 
100
(
300
300
300
300
300
300
300
300
300
300
300
300
300
300
300
300
300
300
300
300
300
300
300
300
300
300
300
299.998
299.986
299.911
299.585
298.593
296.422
292.851
288.157
282.864
277.4
271.98
266.67
261.472
256.373
251.359
246.421
241.555
236.755
232.017
227.369
222.782
218.225
213.912
209.84
205.997
202.836
203.261
204.486
206.73
206.97
206.76
206.814
207.225
208.811
213.606
226.248
254.52
306.82
370.917
409.108
420.997
423.685
423.936
427.069
431.17
430.772
419.243
414.451
423.615
431.279
401.744
314.632
300.133
300
300
300
300
300
300
300
300
300
300
300
300
300
300
300
300
300
300
300
300
)
;

boundaryField
{
    sides
    {
        type            zeroGradient;
    }
    empty
    {
        type            empty;
    }
}


// ************************************************************************* //
