/*--------------------------------*- C++ -*----------------------------------*\
| =========                 |                                                 |
| \\      /  F ield         | OpenFOAM: The Open Source CFD Toolbox           |
|  \\    /   O peration     | Version:  2312                                  |
|   \\  /    A nd           | Website:  www.openfoam.com                      |
|    \\/     M anipulation  |                                                 |
\*---------------------------------------------------------------------------*/
FoamFile
{
    version     2.0;
    format      ascii;
    arch        "LSB;label=32;scalar=64";
    class       volScalarField;
    location    "0.005";
    object      T;
}
// * * * * * * * * * * * * * * * * * * * * * * * * * * * * * * * * * * * * * //

dimensions      [0 0 0 1 0 0 0];

internalField   nonuniform List<scalar> 
100
(
300
300
300
300
300
300
300
300
300
300
300
300
300
300
300
300
299.999
299.998
299.994
299.987
299.971
299.938
299.874
299.759
299.56
299.236
298.739
298.013
297.009
295.686
294.016
291.99
289.616
286.914
283.914
280.653
277.166
273.491
269.662
265.714
261.675
257.572
253.432
249.28
245.143
241.05
237.038
233.144
229.423
225.944
222.797
220.098
217.98
216.574
215.986
216.305
217.65
220.24
224.421
230.645
239.364
250.901
265.341
282.447
301.626
321.94
342.232
361.289
378.075
391.906
402.556
410.214
415.316
418.226
418.611
414.592
402.652
379.979
349.584
322.634
307.818
302.33
300.662
300.185
300.051
300.014
300.004
300.001
300
300
300
300
300
300
300
300
300
300
300
300
)
;

boundaryField
{
    sides
    {
        type            zeroGradient;
    }
    empty
    {
        type            empty;
    }
}


// ************************************************************************* //
