/*--------------------------------*- C++ -*----------------------------------*\
| =========                 |                                                 |
| \\      /  F ield         | OpenFOAM: The Open Source CFD Toolbox           |
|  \\    /   O peration     | Version:  2312                                  |
|   \\  /    A nd           | Website:  www.openfoam.com                      |
|    \\/     M anipulation  |                                                 |
\*---------------------------------------------------------------------------*/
FoamFile
{
    version     2.0;
    format      ascii;
    arch        "LSB;label=32;scalar=64";
    class       volScalarField;
    location    "0.005";
    object      T;
}
// * * * * * * * * * * * * * * * * * * * * * * * * * * * * * * * * * * * * * //

dimensions      [0 0 0 1 0 0 0];

internalField   nonuniform List<scalar> 
100
(
348.432
348.432
348.432
348.432
348.432
348.432
348.432
348.432
348.432
348.432
348.432
348.432
348.432
348.432
348.431
348.43
348.427
348.42
348.405
348.375
348.317
348.212
348.032
347.736
347.278
346.603
345.657
344.392
342.773
340.782
338.415
335.688
332.624
329.257
325.625
321.763
317.708
313.495
309.154
304.713
300.199
295.635
291.044
286.448
281.867
277.327
272.855
268.484
264.26
260.234
256.481
253.094
250.193
247.909
246.36
245.627
245.754
246.757
248.728
251.91
256.668
263.362
272.302
283.62
297.197
312.615
329.17
345.954
361.985
376.382
388.509
398.08
405.157
410.065
413.143
414.127
411.012
399.387
374.622
338.394
304.574
286.585
280.736
279.23
278.863
278.774
278.753
278.748
278.746
278.746
278.746
278.746
278.746
278.746
278.746
278.746
278.746
278.746
278.746
278.746
)
;

boundaryField
{
    sides
    {
        type            zeroGradient;
    }
    empty
    {
        type            empty;
    }
}


// ************************************************************************* //
