/*--------------------------------*- C++ -*----------------------------------*\
| =========                 |                                                 |
| \\      /  F ield         | OpenFOAM: The Open Source CFD Toolbox           |
|  \\    /   O peration     | Version:  2312                                  |
|   \\  /    A nd           | Website:  www.openfoam.com                      |
|    \\/     M anipulation  |                                                 |
\*---------------------------------------------------------------------------*/
FoamFile
{
    version     2.0;
    format      ascii;
    arch        "LSB;label=32;scalar=64";
    class       volScalarField;
    location    "0.005";
    object      thermo:e;
}
// * * * * * * * * * * * * * * * * * * * * * * * * * * * * * * * * * * * * * //

dimensions      [0 2 -2 0 0 0 0];

internalField   nonuniform List<scalar> 
100
(
247130
247130
247130
247130
247130
247130
247130
247130
247130
247130
247130
247130
247130
247129
247129
247128
247126
247121
247111
247090
247050
246978
246853
246649
246332
245865
245210
244335
243216
241838
240200
238313
236192
233860
231344
228669
225859
222938
219928
216847
213714
210546
207358
204164
200980
197823
194713
191671
188730
185926
183311
180951
178928
177335
176255
175743
175832
176532
177906
180125
183442
188104
194327
202199
211631
222328
233800
245416
256497
266439
274806
281404
286281
289662
291781
292459
290314
282305
265224
240186
216751
204259
200194
199146
198891
198830
198815
198811
198810
198810
198810
198810
198810
198810
198810
198810
198810
198810
198810
198810
)
;

boundaryField
{
    sides
    {
        type            zeroGradient;
    }
    empty
    {
        type            empty;
    }
}


// ************************************************************************* //
