/*--------------------------------*- C++ -*----------------------------------*\
| =========                 |                                                 |
| \\      /  F ield         | OpenFOAM: The Open Source CFD Toolbox           |
|  \\    /   O peration     | Version:  2312                                  |
|   \\  /    A nd           | Website:  www.openfoam.com                      |
|    \\/     M anipulation  |                                                 |
\*---------------------------------------------------------------------------*/
FoamFile
{
    version     2.0;
    format      ascii;
    arch        "LSB;label=32;scalar=64";
    class       volScalarField;
    location    "0.005";
    object      thermo:e;
}
// * * * * * * * * * * * * * * * * * * * * * * * * * * * * * * * * * * * * * //

dimensions      [0 2 -2 0 0 0 0];

internalField   nonuniform List<scalar> 
100
(
213576
213576
213576
213576
213576
213576
213576
213576
213576
213576
213576
213576
213576
213576
213576
213576
213576
213575
213572
213567
213556
213533
213489
213409
213271
213046
212701
212197
211500
210581
209421
208015
206365
204488
202403
200136
197711
195155
192490
189742
186929
184071
181186
178291
175406
172550
169749
167030
164430
161998
159798
157910
156429
155444
155034
155257
156198
158009
160934
165284
171373
179422
189483
201384
214705
228792
242841
256017
267607
277148
284489
289764
293277
295281
295546
292779
284555
268922
247927
229273
219001
215194
214036
213705
213612
213586
213579
213577
213576
213576
213576
213576
213576
213576
213576
213576
213576
213576
213576
213576
)
;

boundaryField
{
    sides
    {
        type            zeroGradient;
    }
    empty
    {
        type            empty;
    }
}


// ************************************************************************* //
