/*--------------------------------*- C++ -*----------------------------------*\
| =========                 |                                                 |
| \\      /  F ield         | OpenFOAM: The Open Source CFD Toolbox           |
|  \\    /   O peration     | Version:  2212                                  |
|   \\  /    A nd           | Website:  www.openfoam.com                      |
|    \\/     M anipulation  |                                                 |
\*---------------------------------------------------------------------------*/
FoamFile
{
    version     2.0;
    format      ascii;
    arch        "LSB;label=32;scalar=64";
    class       volVectorField;
    location    "0.005";
    object      U;
}
// * * * * * * * * * * * * * * * * * * * * * * * * * * * * * * * * * * * * * //

dimensions      [0 1 -1 0 0 0 0];

internalField   nonuniform List<vector> 
100
(
(8.1863e-14 0 0)
(-1.48937e-13 0 0)
(-3.16818e-13 0 0)
(-2.38382e-13 0 0)
(-3.29691e-13 0 0)
(3.84591e-14 0 0)
(1.37385e-13 0 0)
(-2.51004e-13 0 0)
(-1.42111e-13 0 0)
(1.90108e-13 0 0)
(2.68112e-13 0 0)
(-4.25953e-14 0 0)
(-3.19354e-13 0 0)
(-4.32324e-13 0 0)
(-6.04017e-13 0 0)
(-6.44654e-13 0 0)
(-6.79579e-13 0 0)
(-4.56226e-13 0 0)
(-3.45987e-13 0 0)
(-5.15249e-13 0 0)
(2.11384e-12 0 0)
(1.13903e-10 0 0)
(4.13569e-09 0 0)
(1.20558e-07 0 0)
(2.78758e-06 0 0)
(5.03611e-05 0 0)
(0.000698928 0 0)
(0.00732287 0 0)
(0.0570395 0 0)
(0.327094 0 0)
(1.38117 0 0)
(4.35597 0 0)
(10.5712 0 0)
(20.5908 0 0)
(33.7623 0 0)
(48.7765 0 0)
(64.4987 0 0)
(80.3073 0 0)
(95.9825 0 0)
(111.497 0 0)
(126.88 0 0)
(142.164 0 0)
(157.374 0 0)
(172.525 0 0)
(187.618 0 0)
(202.647 0 0)
(217.679 0 0)
(232.564 0 0)
(247.177 0 0)
(261.808 0 0)
(275.85 0 0)
(288.115 0 0)
(298.497 0 0)
(296.929 0 0)
(292.68 0 0)
(287.423 0 0)
(283.362 0 0)
(283.106 0 0)
(282.878 0 0)
(282.759 0 0)
(283.123 0 0)
(283.955 0 0)
(284.655 0 0)
(284.799 0 0)
(288.234 0 0)
(289.748 0 0)
(281.253 0 0)
(277.305 0 0)
(277.749 0 0)
(278.84 0 0)
(288.969 0 0)
(299.776 0 0)
(296.734 0 0)
(274.239 0 0)
(266.147 0 0)
(288.742 0 0)
(298.432 0 0)
(213.947 0 0)
(46.1737 0 0)
(1.40542 0 0)
(0.00783299 0 0)
(1.39385e-05 0 0)
(1.1198e-08 0 0)
(4.74589e-12 0 0)
(9.03002e-14 0 0)
(1.09614e-13 0 0)
(-1.0447e-13 0 0)
(-3.12003e-13 0 0)
(-3.64109e-13 0 0)
(-3.88167e-13 0 0)
(-4.13147e-13 0 0)
(-5.11326e-13 0 0)
(-3.57213e-13 0 0)
(-1.32693e-13 0 0)
(-3.59863e-13 0 0)
(-3.24259e-13 0 0)
(-2.99405e-13 0 0)
(-4.96973e-13 0 0)
(-6.58616e-13 0 0)
(-7.10167e-13 0 0)
)
;

boundaryField
{
    sides
    {
        type            zeroGradient;
    }
    empty
    {
        type            empty;
    }
}


// ************************************************************************* //
