/*--------------------------------*- C++ -*----------------------------------*\
| =========                 |                                                 |
| \\      /  F ield         | OpenFOAM: The Open Source CFD Toolbox           |
|  \\    /   O peration     | Version:  2212                                  |
|   \\  /    A nd           | Website:  www.openfoam.com                      |
|    \\/     M anipulation  |                                                 |
\*---------------------------------------------------------------------------*/
FoamFile
{
    version     2.0;
    format      ascii;
    arch        "LSB;label=32;scalar=64";
    class       volVectorField;
    location    "0.005";
    object      U;
}
// * * * * * * * * * * * * * * * * * * * * * * * * * * * * * * * * * * * * * //

dimensions      [0 1 -1 0 0 0 0];

internalField   nonuniform List<vector> 
100
(
(1.1625e-12 0 0)
(6.8542e-12 0 0)
(3.51147e-11 0 0)
(1.70918e-10 0 0)
(7.98103e-10 0 0)
(3.56462e-09 0 0)
(1.52205e-08 0 0)
(6.21267e-08 0 0)
(2.4239e-07 0 0)
(9.03859e-07 0 0)
(3.22094e-06 0 0)
(1.0967e-05 0 0)
(3.56721e-05 0 0)
(0.000110814 0 0)
(0.000328668 0 0)
(0.000930401 0 0)
(0.00251285 0 0)
(0.00647232 0 0)
(0.0158908 0 0)
(0.0371714 0 0)
(0.0827987 0 0)
(0.175542 0 0)
(0.354084 0 0)
(0.679358 0 0)
(1.23988 0 0)
(2.15353 0 0)
(3.56317 0 0)
(5.62503 0 0)
(8.49141 0 0)
(12.2917 0 0)
(17.1169 0 0)
(23.0117 0 0)
(29.9749 0 0)
(37.9662 0 0)
(46.9171 0 0)
(56.7419 0 0)
(67.3474 0 0)
(78.6395 0 0)
(90.5262 0 0)
(102.92 0 0)
(115.741 0 0)
(128.918 0 0)
(142.376 0 0)
(156.041 0 0)
(169.834 0 0)
(183.662 0 0)
(197.41 0 0)
(210.945 0 0)
(224.082 0 0)
(236.577 0 0)
(248.12 0 0)
(258.341 0 0)
(266.868 0 0)
(273.444 0 0)
(278.049 0 0)
(280.945 0 0)
(282.586 0 0)
(283.44 0 0)
(283.87 0 0)
(284.093 0 0)
(284.222 0 0)
(284.307 0 0)
(284.372 0 0)
(284.428 0 0)
(284.479 0 0)
(284.528 0 0)
(284.578 0 0)
(284.628 0 0)
(284.679 0 0)
(284.731 0 0)
(284.787 0 0)
(284.847 0 0)
(284.79 0 0)
(283.869 0 0)
(279.444 0 0)
(265.586 0 0)
(234.272 0 0)
(181.248 0 0)
(114.268 0 0)
(54.8678 0 0)
(20.2343 0 0)
(6.3223 0 0)
(1.8359 0 0)
(0.516971 0 0)
(0.142944 0 0)
(0.0388755 0 0)
(0.0103826 0 0)
(0.00271635 0 0)
(0.000694372 0 0)
(0.000173007 0 0)
(4.19209e-05 0 0)
(9.8587e-06 0 0)
(2.24625e-06 0 0)
(4.95061e-07 0 0)
(1.05394e-07 0 0)
(2.16462e-08 0 0)
(4.28423e-09 0 0)
(8.16327e-10 0 0)
(1.49631e-10 0 0)
(2.63297e-11 0 0)
)
;

boundaryField
{
    sides
    {
        type            zeroGradient;
    }
    empty
    {
        type            empty;
    }
}


// ************************************************************************* //
