/*--------------------------------*- C++ -*----------------------------------*\
| =========                 |                                                 |
| \\      /  F ield         | OpenFOAM: The Open Source CFD Toolbox           |
|  \\    /   O peration     | Version:  2312                                  |
|   \\  /    A nd           | Website:  www.openfoam.com                      |
|    \\/     M anipulation  |                                                 |
\*---------------------------------------------------------------------------*/
FoamFile
{
    version     2.0;
    format      ascii;
    arch        "LSB;label=32;scalar=64";
    class       volVectorField;
    location    "0.005";
    object      U;
}
// * * * * * * * * * * * * * * * * * * * * * * * * * * * * * * * * * * * * * //

dimensions      [0 1 -1 0 0 0 0];

internalField   nonuniform List<vector> 
100
(
(5.62457e-11 0 0)
(2.58076e-10 0 0)
(1.14104e-09 0 0)
(4.84312e-09 0 0)
(1.97033e-08 0 0)
(7.68191e-08 0 0)
(2.87003e-07 0 0)
(1.02741e-06 0 0)
(3.5236e-06 0 0)
(1.15755e-05 0 0)
(3.64184e-05 0 0)
(0.000109704 0 0)
(0.000316325 0 0)
(0.000872795 0 0)
(0.00230361 0 0)
(0.0058137 0 0)
(0.0140236 0 0)
(0.0323175 0 0)
(0.071118 0 0)
(0.14938 0 0)
(0.299372 0 0)
(0.572296 0 0)
(1.04353 0 0)
(1.81549 0 0)
(3.01575 0 0)
(4.78903 0 0)
(7.28335 0 0)
(10.6331 0 0)
(14.9434 0 0)
(20.2792 0 0)
(26.6624 0 0)
(34.0748 0 0)
(42.4665 0 0)
(51.764 0 0)
(61.8833 0 0)
(72.7384 0 0)
(84.2423 0 0)
(96.3131 0 0)
(108.875 0 0)
(121.858 0 0)
(135.198 0 0)
(148.832 0 0)
(162.701 0 0)
(176.751 0 0)
(190.92 0 0)
(205.139 0 0)
(219.322 0 0)
(233.363 0 0)
(247.118 0 0)
(260.409 0 0)
(272.992 0 0)
(284.554 0 0)
(294.731 0 0)
(303.167 0 0)
(309.632 0 0)
(314.131 0 0)
(316.928 0 0)
(318.499 0 0)
(319.317 0 0)
(319.723 0 0)
(319.924 0 0)
(320.034 0 0)
(320.104 0 0)
(320.157 0 0)
(320.203 0 0)
(320.245 0 0)
(320.286 0 0)
(320.329 0 0)
(320.373 0 0)
(320.418 0 0)
(320.466 0 0)
(320.522 0 0)
(320.615 0 0)
(320.738 0 0)
(320.426 0 0)
(317.283 0 0)
(304.794 0 0)
(272.803 0 0)
(214.053 0 0)
(134.967 0 0)
(62.0163 0 0)
(20.5354 0 0)
(5.5578 0 0)
(1.39133 0 0)
(0.339424 0 0)
(0.0818208 0 0)
(0.0195257 0 0)
(0.00460646 0 0)
(0.00107192 0 0)
(0.000245425 0 0)
(5.51513e-05 0 0)
(1.21349e-05 0 0)
(2.60852e-06 0 0)
(5.46678e-07 0 0)
(1.11489e-07 0 0)
(2.2088e-08 0 0)
(4.24468e-09 0 0)
(7.90165e-10 0 0)
(1.42443e-10 0 0)
(2.49198e-11 0 0)
)
;

boundaryField
{
    sides
    {
        type            zeroGradient;
    }
    empty
    {
        type            empty;
    }
}


// ************************************************************************* //
