/*--------------------------------*- C++ -*----------------------------------*\
| =========                 |                                                 |
| \\      /  F ield         | OpenFOAM: The Open Source CFD Toolbox           |
|  \\    /   O peration     | Version:  2312                                  |
|   \\  /    A nd           | Website:  www.openfoam.com                      |
|    \\/     M anipulation  |                                                 |
\*---------------------------------------------------------------------------*/
FoamFile
{
    version     2.0;
    format      ascii;
    arch        "LSB;label=32;scalar=64";
    class       volScalarField;
    location    "0.054";
    object      rho;
}
// * * * * * * * * * * * * * * * * * * * * * * * * * * * * * * * * * * * * * //

dimensions      [1 -3 0 0 0 0 0];

internalField   nonuniform List<scalar> 
100
(
0.466642
0.465458
0.463847
0.462229
0.460597
0.458978
0.457321
0.455691
0.45398
0.452323
0.450523
0.448814
0.446894
0.445095
0.443052
0.441114
0.438982
0.436857
0.434708
0.432372
0.430296
0.427765
0.42585
0.423177
0.421489
0.418762
0.417321
0.414661
0.41342
0.410982
0.409821
0.407781
0.406546
0.405041
0.403627
0.402692
0.401109
0.400643
0.399023
0.398839
0.397364
0.397276
0.396093
0.395995
0.395163
0.395049
0.39455
0.394477
0.394262
0.394298
0.394325
0.394518
0.394763
0.395138
0.395588
0.396151
0.396795
0.397538
0.398358
0.399265
0.400243
0.401294
0.402408
0.403589
0.40484
0.406185
0.407671
0.40941
0.411624
0.414735
0.419463
0.426813
0.437747
0.452441
0.469678
0.487139
0.502561
0.514692
0.523445
0.529422
0.533408
0.536075
0.537906
0.539217
0.540205
0.54099
0.541642
0.54221
0.542716
0.543181
0.543614
0.544023
0.544411
0.544785
0.545143
0.545489
0.545821
0.546141
0.546449
0.546664
)
;

boundaryField
{
    sides
    {
        type            zeroGradient;
    }
    empty
    {
        type            empty;
    }
}


// ************************************************************************* //
