/*--------------------------------*- C++ -*----------------------------------*\
| =========                 |                                                 |
| \\      /  F ield         | OpenFOAM: The Open Source CFD Toolbox           |
|  \\    /   O peration     | Version:  2312                                  |
|   \\  /    A nd           | Website:  www.openfoam.com                      |
|    \\/     M anipulation  |                                                 |
\*---------------------------------------------------------------------------*/
FoamFile
{
    version     2.0;
    format      ascii;
    arch        "LSB;label=32;scalar=64";
    class       volScalarField;
    location    "0.054";
    object      thermo:e;
}
// * * * * * * * * * * * * * * * * * * * * * * * * * * * * * * * * * * * * * //

dimensions      [0 2 -2 0 0 0 0];

internalField   nonuniform List<scalar> 
100
(
163072
162815
162420
161987
161621
161157
160860
160328
160167
159507
159570
158715
159086
157997
158699
157425
158357
157085
157976
157044
157467
157326
156761
157900
155823
158681
154686
159513
153469
160177
152371
160430
151608
160092
151303
159145
151412
157756
151738
156201
152037
154739
152136
153515
151987
152545
151641
151772
151186
151128
150692
150561
150201
150044
149728
149562
149274
149104
148833
148661
148400
148224
147969
147794
147547
147381
147157
147032
146891
146916
147053
147556
148434
149899
151734
153800
155636
157162
158182
158903
159288
159573
159688
159815
159847
159929
159943
160014
160027
160097
160112
160180
160198
160264
160283
160346
160364
160426
160442
160507
)
;

boundaryField
{
    sides
    {
        type            zeroGradient;
    }
    empty
    {
        type            empty;
    }
}


// ************************************************************************* //
