/*--------------------------------*- C++ -*----------------------------------*\
| =========                 |                                                 |
| \\      /  F ield         | OpenFOAM: The Open Source CFD Toolbox           |
|  \\    /   O peration     | Version:  2312                                  |
|   \\  /    A nd           | Website:  www.openfoam.com                      |
|    \\/     M anipulation  |                                                 |
\*---------------------------------------------------------------------------*/
FoamFile
{
    version     2.0;
    format      ascii;
    arch        "LSB;label=32;scalar=64";
    class       volScalarField;
    location    "0.027";
    object      p;
}
// * * * * * * * * * * * * * * * * * * * * * * * * * * * * * * * * * * * * * //

dimensions      [1 -1 -2 0 0 0 0];

internalField   nonuniform List<scalar> 
100
(
52524.7
52093.8
51483.8
50916
50341.8
49775.8
49205.5
48653
48074.4
47553.9
46939.7
46490.6
45794.1
45466.1
44650.7
44453.4
43553.4
43406.5
42538.8
42317.1
41585.2
41233.3
40639.7
40197.8
39683
39210.5
38728
38256.4
37788.7
37327
36871
36420.7
35976.5
35538.5
35106.8
34681.8
34263.6
33852.6
33449.1
33053.7
32666.7
32288.8
31920.7
31563
31216.7
30882.7
30562.4
30256.5
29967.7
29695.1
29445.2
29210.3
29009.2
28812.8
28674.6
28508.3
28451.4
28293.5
28338.8
28156.5
28318
28083.9
28352
28068.2
28396.6
28105.8
28420.5
28186.7
28417.4
28291.1
28394.7
28406
28351.6
28539.1
28266.7
28716.3
28116.3
28959.6
27903.3
29254
27691.3
29547.6
27618.7
29783.9
27838.2
29956.2
28442
30184.1
29489.4
30854.7
31270.1
32735.3
34185.4
35868.2
37299.1
38504
39106.5
39525.1
39707.4
39772.6
)
;

boundaryField
{
    sides
    {
        type            zeroGradient;
    }
    empty
    {
        type            empty;
    }
}


// ************************************************************************* //
