/*--------------------------------*- C++ -*----------------------------------*\
| =========                 |                                                 |
| \\      /  F ield         | OpenFOAM: The Open Source CFD Toolbox           |
|  \\    /   O peration     | Version:  2312                                  |
|   \\  /    A nd           | Website:  www.openfoam.com                      |
|    \\/     M anipulation  |                                                 |
\*---------------------------------------------------------------------------*/
FoamFile
{
    version     2.0;
    format      ascii;
    arch        "LSB;label=32;scalar=64";
    class       volScalarField;
    location    "0.027";
    object      thermo:e;
}
// * * * * * * * * * * * * * * * * * * * * * * * * * * * * * * * * * * * * * //

dimensions      [0 2 -2 0 0 0 0];

internalField   nonuniform List<scalar> 
100
(
188140
187444
186281
185194
184056
182907
181706
180544
179266
178217
176820
176112
174463
174344
172316
172824
170553
171314
169259
169720
168253
168190
167254
166838
166166
165619
165028
164457
163884
163314
162746
162181
161619
161059
160503
159950
159401
158857
158318
157785
157259
156740
156231
155731
155242
154767
154307
153862
153442
153034
152670
152297
152022
151664
151540
151132
151263
150684
151207
150308
151331
150028
151522
149911
151628
150011
151565
150314
151363
150728
151079
151207
150702
151822
150093
152716
149140
154000
147872
155465
146579
156690
145975
157248
146584
156773
148404
155756
151272
155465
154736
157050
158738
161139
163121
165330
165829
166324
166796
167198
)
;

boundaryField
{
    sides
    {
        type            zeroGradient;
    }
    empty
    {
        type            empty;
    }
}


// ************************************************************************* //
