/*--------------------------------*- C++ -*----------------------------------*\
| =========                 |                                                 |
| \\      /  F ield         | OpenFOAM: The Open Source CFD Toolbox           |
|  \\    /   O peration     | Version:  2312                                  |
|   \\  /    A nd           | Website:  www.openfoam.com                      |
|    \\/     M anipulation  |                                                 |
\*---------------------------------------------------------------------------*/
FoamFile
{
    version     2.0;
    format      ascii;
    arch        "LSB;label=32;scalar=64";
    class       volVectorField;
    location    "0.027";
    object      U;
}
// * * * * * * * * * * * * * * * * * * * * * * * * * * * * * * * * * * * * * //

dimensions      [0 1 -1 0 0 0 0];

internalField   nonuniform List<vector> 
100
(
(116.276 0 0)
(119.076 0 0)
(122.312 0 0)
(125.47 0 0)
(128.651 0 0)
(131.838 0 0)
(135.014 0 0)
(138.21 0 0)
(141.355 0 0)
(144.568 0 0)
(147.648 0 0)
(150.907 0 0)
(153.913 0 0)
(157.222 0 0)
(160.214 0 0)
(163.492 0 0)
(166.602 0 0)
(169.733 0 0)
(173.029 0 0)
(176.029 0 0)
(179.405 0 0)
(182.417 0 0)
(185.731 0 0)
(188.83 0 0)
(192.06 0 0)
(195.215 0 0)
(198.4 0 0)
(201.566 0 0)
(204.731 0 0)
(207.888 0 0)
(211.036 0 0)
(214.175 0 0)
(217.304 0 0)
(220.421 0 0)
(223.523 0 0)
(226.611 0 0)
(229.68 0 0)
(232.729 0 0)
(235.755 0 0)
(238.754 0 0)
(241.722 0 0)
(244.655 0 0)
(247.546 0 0)
(250.39 0 0)
(253.178 0 0)
(255.903 0 0)
(258.554 0 0)
(261.118 0 0)
(263.586 0 0)
(265.939 0 0)
(268.172 0 0)
(270.25 0 0)
(272.196 0 0)
(273.934 0 0)
(275.555 0 0)
(276.9 0 0)
(278.194 0 0)
(279.129 0 0)
(280.131 0 0)
(280.706 0 0)
(281.462 0 0)
(281.799 0 0)
(282.335 0 0)
(282.594 0 0)
(282.911 0 0)
(283.211 0 0)
(283.328 0 0)
(283.704 0 0)
(283.687 0 0)
(284.099 0 0)
(284.004 0 0)
(284.438 0 0)
(284.252 0 0)
(284.774 0 0)
(284.396 0 0)
(285.098 0 0)
(284.439 0 0)
(285.361 0 0)
(284.448 0 0)
(285.39 0 0)
(284.366 0 0)
(284.853 0 0)
(283.983 0 0)
(283.48 0 0)
(282.859 0 0)
(280.93 0 0)
(280.172 0 0)
(276.669 0 0)
(274.699 0 0)
(269.021 0 0)
(263.407 0 0)
(254.19 0 0)
(244.444 0 0)
(234.632 0 0)
(226.45 0 0)
(220.986 0 0)
(217.688 0 0)
(215.562 0 0)
(214.732 0 0)
(214.584 0 0)
)
;

boundaryField
{
    sides
    {
        type            mywaveTransmissive;
        gamma           1.4;
        value           nonuniform List<vector> 2((214.605 0 0) (115.145 0 0));
    }
    empty
    {
        type            empty;
    }
}


// ************************************************************************* //
