/*--------------------------------*- C++ -*----------------------------------*\
| =========                 |                                                 |
| \\      /  F ield         | OpenFOAM: The Open Source CFD Toolbox           |
|  \\    /   O peration     | Version:  2312                                  |
|   \\  /    A nd           | Website:  www.openfoam.com                      |
|    \\/     M anipulation  |                                                 |
\*---------------------------------------------------------------------------*/
FoamFile
{
    version     2.0;
    format      ascii;
    arch        "LSB;label=32;scalar=64";
    class       volScalarField;
    location    "5e-05";
    object      p;
}
// * * * * * * * * * * * * * * * * * * * * * * * * * * * * * * * * * * * * * //

dimensions      [1 -1 -2 0 0 0 0];

internalField   nonuniform List<scalar> 
100
(
4.63368e+07
4.63368e+07
4.63368e+07
4.63368e+07
4.63368e+07
4.63368e+07
4.63368e+07
4.63368e+07
4.63368e+07
4.63368e+07
4.63368e+07
4.63368e+07
4.63368e+07
4.63368e+07
4.63368e+07
4.63368e+07
4.63368e+07
4.63368e+07
4.63368e+07
4.63368e+07
4.63368e+07
4.63368e+07
4.63368e+07
4.63368e+07
4.63368e+07
4.6337e+07
4.6339e+07
4.63614e+07
4.66109e+07
4.93182e+07
7.27762e+07
1.73314e+08
3.62502e+08
5.47279e+08
6.51102e+08
6.81351e+08
6.81647e+08
6.77302e+08
6.74475e+08
6.73126e+08
6.72613e+08
6.72413e+08
6.72052e+08
6.714e+08
6.70781e+08
6.7059e+08
6.70915e+08
6.71662e+08
6.74584e+08
7.1557e+08
6.85243e+08
6.74321e+08
6.73337e+08
6.74004e+08
6.75247e+08
6.76821e+08
6.78541e+08
6.80245e+08
6.81849e+08
6.83357e+08
6.84851e+08
6.86442e+08
6.8823e+08
6.90286e+08
6.92642e+08
6.953e+08
6.98252e+08
7.01484e+08
7.04995e+08
7.08794e+08
7.12905e+08
7.17365e+08
7.22217e+08
7.27509e+08
7.33284e+08
7.39579e+08
7.46424e+08
7.53837e+08
7.6183e+08
7.70401e+08
7.79542e+08
7.89234e+08
7.99449e+08
8.10148e+08
8.21277e+08
8.3277e+08
8.44536e+08
8.56461e+08
8.68394e+08
8.80139e+08
8.91441e+08
9.0197e+08
9.11305e+08
9.18921e+08
9.24189e+08
9.26404e+08
9.24874e+08
9.19075e+08
9.08936e+08
8.96155e+08
)
;

boundaryField
{
    sides
    {
        type            zeroGradient;
    }
    empty
    {
        type            empty;
    }
}


// ************************************************************************* //
