/*--------------------------------*- C++ -*----------------------------------*\
| =========                 |                                                 |
| \\      /  F ield         | OpenFOAM: The Open Source CFD Toolbox           |
|  \\    /   O peration     | Version:  2312                                  |
|   \\  /    A nd           | Website:  www.openfoam.com                      |
|    \\/     M anipulation  |                                                 |
\*---------------------------------------------------------------------------*/
FoamFile
{
    version     2.0;
    format      ascii;
    arch        "LSB;label=32;scalar=64";
    class       volScalarField;
    location    "5e-05";
    object      rho;
}
// * * * * * * * * * * * * * * * * * * * * * * * * * * * * * * * * * * * * * //

dimensions      [1 -3 0 0 0 0 0];

internalField   nonuniform List<scalar> 
100
(
1.16102
1.16102
1.16102
1.16102
1.16102
1.16102
1.16102
1.16102
1.16102
1.16102
1.16102
1.16102
1.16102
1.16102
1.16102
1.16102
1.16102
1.16102
1.16102
1.16102
1.16102
1.16102
1.16102
1.16102
1.16102
1.16102
1.16105
1.16137
1.16469
1.19355
1.3564
1.79789
2.37455
2.74353
2.73886
2.45272
2.06507
1.67808
1.33234
1.0422
0.809054
0.626993
0.48721
0.380848
0.300225
0.23909
0.192543
0.156888
0.129627
0.112395
0.104953
0.103281
0.10313
0.103232
0.103422
0.103664
0.103927
0.104188
0.104434
0.104665
0.104893
0.105137
0.105411
0.105726
0.106087
0.106494
0.106946
0.107441
0.107979
0.108561
0.10919
0.109873
0.110617
0.111427
0.112312
0.113276
0.114324
0.11546
0.116684
0.117996
0.119397
0.120881
0.122446
0.124084
0.125789
0.127549
0.129351
0.131178
0.133005
0.134804
0.136535
0.138148
0.139578
0.140744
0.141551
0.14189
0.141656
0.140768
0.139215
0.137257
)
;

boundaryField
{
    sides
    {
        type            zeroGradient;
    }
    empty
    {
        type            empty;
    }
}


// ************************************************************************* //
