/*--------------------------------*- C++ -*----------------------------------*\
| =========                 |                                                 |
| \\      /  F ield         | OpenFOAM: The Open Source CFD Toolbox           |
|  \\    /   O peration     | Version:  2312                                  |
|   \\  /    A nd           | Website:  www.openfoam.com                      |
|    \\/     M anipulation  |                                                 |
\*---------------------------------------------------------------------------*/
FoamFile
{
    version     2.0;
    format      ascii;
    arch        "LSB;label=32;scalar=64";
    class       volScalarField;
    location    "5e-05";
    object      T;
}
// * * * * * * * * * * * * * * * * * * * * * * * * * * * * * * * * * * * * * //

dimensions      [0 0 0 1 0 0 0];

internalField   nonuniform List<scalar> 
100
(
34843.2
34843.2
34843.2
34843.2
34843.2
34843.2
34843.2
34843.2
34843.2
34843.2
34843.2
34843.2
34843.2
34843.2
34843.2
34843.2
34843.2
34843.2
34843.2
34843.2
34843.2
34843.2
34843.2
34843.2
34843.2
34843.3
34843.9
34851
34938.7
36074.3
46841.8
84159.6
133279
174153
207544
242524
288174
352372
441959
563865
725804
936278
1.20425e+06
1.53908e+06
1.95059e+06
2.44865e+06
3.04208e+06
3.7376e+06
4.54331e+06
5.55821e+06
5.70006e+06
5.70006e+06
5.70006e+06
5.70006e+06
5.70006e+06
5.70006e+06
5.70006e+06
5.70006e+06
5.70006e+06
5.70006e+06
5.70006e+06
5.70006e+06
5.70006e+06
5.70006e+06
5.70006e+06
5.70006e+06
5.70006e+06
5.70006e+06
5.70006e+06
5.70006e+06
5.70006e+06
5.70006e+06
5.70006e+06
5.70006e+06
5.70006e+06
5.70006e+06
5.70006e+06
5.70006e+06
5.70006e+06
5.70006e+06
5.70006e+06
5.70006e+06
5.70006e+06
5.70006e+06
5.70006e+06
5.70006e+06
5.70006e+06
5.70006e+06
5.70006e+06
5.70006e+06
5.70006e+06
5.70006e+06
5.70006e+06
5.70006e+06
5.70006e+06
5.70006e+06
5.70006e+06
5.70006e+06
5.70006e+06
5.70006e+06
)
;

boundaryField
{
    sides
    {
        type            zeroGradient;
    }
    empty
    {
        type            empty;
    }
}


// ************************************************************************* //
