/*--------------------------------*- C++ -*----------------------------------*\
| =========                 |                                                 |
| \\      /  F ield         | OpenFOAM: The Open Source CFD Toolbox           |
|  \\    /   O peration     | Version:  2312                                  |
|   \\  /    A nd           | Website:  www.openfoam.com                      |
|    \\/     M anipulation  |                                                 |
\*---------------------------------------------------------------------------*/
FoamFile
{
    version     2.0;
    format      ascii;
    arch        "LSB;label=32;scalar=64";
    class       volScalarField;
    location    "5e-05";
    object      thermo:e;
}
// * * * * * * * * * * * * * * * * * * * * * * * * * * * * * * * * * * * * * //

dimensions      [0 2 -2 0 0 0 0];

internalField   nonuniform List<scalar> 
100
(
3.76955e+16
3.76955e+16
3.76955e+16
3.76955e+16
3.76955e+16
3.76955e+16
3.76955e+16
3.76955e+16
3.76955e+16
3.76955e+16
3.76955e+16
3.76955e+16
3.76955e+16
3.76955e+16
3.76955e+16
3.76955e+16
3.76955e+16
3.76955e+16
3.76955e+16
3.76955e+16
3.76955e+16
3.76955e+16
3.76955e+16
3.76955e+16
3.76955e+16
3.76955e+16
3.76955e+16
3.76955e+16
3.76955e+16
3.76955e+16
3.76955e+16
3.76955e+16
3.76955e+16
3.76955e+16
3.76955e+16
3.76955e+16
3.76955e+16
3.76955e+16
3.76955e+16
3.76955e+16
3.76955e+16
3.76955e+16
3.76955e+16
3.76955e+16
3.77452e+16
3.01875e+17
3.98675e+20
1.73005e+23
2.40371e+25
1.81263e+27
2.01412e+29
3.15113e+29
3.22143e+29
3.22282e+29
3.22284e+29
3.22284e+29
3.22284e+29
3.22284e+29
3.22284e+29
3.22284e+29
3.22284e+29
3.22284e+29
3.22284e+29
3.22284e+29
3.22284e+29
3.22284e+29
3.22284e+29
3.22284e+29
3.22284e+29
3.22284e+29
3.22284e+29
3.22284e+29
3.22284e+29
3.22284e+29
3.22284e+29
3.22284e+29
3.22284e+29
3.22284e+29
3.22284e+29
3.22284e+29
3.22284e+29
3.22284e+29
3.22284e+29
3.22284e+29
3.22284e+29
3.22284e+29
3.22284e+29
3.22284e+29
3.22284e+29
3.22284e+29
3.22284e+29
3.22284e+29
3.22284e+29
3.22284e+29
3.22284e+29
3.22284e+29
3.22284e+29
3.22284e+29
3.22284e+29
3.22284e+29
)
;

boundaryField
{
    sides
    {
        type            zeroGradient;
    }
    empty
    {
        type            empty;
    }
}


// ************************************************************************* //
