/*--------------------------------*- C++ -*----------------------------------*\
| =========                 |                                                 |
| \\      /  F ield         | OpenFOAM: The Open Source CFD Toolbox           |
|  \\    /   O peration     | Version:  2312                                  |
|   \\  /    A nd           | Website:  www.openfoam.com                      |
|    \\/     M anipulation  |                                                 |
\*---------------------------------------------------------------------------*/
FoamFile
{
    version     2.0;
    format      ascii;
    arch        "LSB;label=32;scalar=64";
    class       volScalarField;
    location    "5e-05";
    object      thermo:e;
}
// * * * * * * * * * * * * * * * * * * * * * * * * * * * * * * * * * * * * * //

dimensions      [0 2 -2 0 0 0 0];

internalField   nonuniform List<scalar> 
100
(
5.95678e+07
5.95678e+07
5.95678e+07
5.95678e+07
5.95678e+07
5.95678e+07
5.95678e+07
5.95678e+07
5.95678e+07
5.95678e+07
5.95678e+07
5.95678e+07
5.95678e+07
5.95678e+07
5.95678e+07
5.95678e+07
5.95678e+07
5.95678e+07
5.95678e+07
5.95678e+07
5.95678e+07
5.95678e+07
5.95678e+07
5.95679e+07
5.95679e+07
5.95679e+07
5.9569e+07
5.95812e+07
5.97311e+07
6.16725e+07
8.00807e+07
1.43879e+08
2.27853e+08
2.97732e+08
3.54817e+08
4.14618e+08
4.92662e+08
6.02413e+08
7.55573e+08
9.63982e+08
1.24083e+09
1.60066e+09
2.05879e+09
2.63121e+09
3.33472e+09
4.18621e+09
5.20073e+09
6.3898e+09
7.76724e+09
9.50231e+09
1.18697e+10
1.4671e+10
1.75741e+10
2.044e+10
2.32228e+10
2.58915e+10
2.842e+10
3.07868e+10
3.29753e+10
3.49749e+10
3.67812e+10
3.83952e+10
3.98231e+10
4.10742e+10
4.21607e+10
4.30962e+10
4.38952e+10
4.45726e+10
4.51431e+10
4.56211e+10
4.602e+10
4.63526e+10
4.66301e+10
4.68629e+10
4.70598e+10
4.72285e+10
4.73753e+10
4.75055e+10
4.76235e+10
4.77327e+10
4.78357e+10
4.79346e+10
4.80309e+10
4.81255e+10
4.82191e+10
4.8312e+10
4.8404e+10
4.84947e+10
4.85835e+10
4.86692e+10
4.87503e+10
4.88248e+10
4.88899e+10
4.89424e+10
4.89781e+10
4.89924e+10
4.89805e+10
4.89382e+10
4.88643e+10
4.87701e+10
)
;

boundaryField
{
    sides
    {
        type            zeroGradient;
    }
    empty
    {
        type            empty;
    }
}


// ************************************************************************* //
