/*--------------------------------*- C++ -*----------------------------------*\
| =========                 |                                                 |
| \\      /  F ield         | OpenFOAM: The Open Source CFD Toolbox           |
|  \\    /   O peration     | Version:  2312                                  |
|   \\  /    A nd           | Website:  www.openfoam.com                      |
|    \\/     M anipulation  |                                                 |
\*---------------------------------------------------------------------------*/
FoamFile
{
    version     2.0;
    format      ascii;
    arch        "LSB;label=32;scalar=64";
    class       volVectorField;
    location    "5e-05";
    object      U;
}
// * * * * * * * * * * * * * * * * * * * * * * * * * * * * * * * * * * * * * //

dimensions      [0 1 -1 0 0 0 0];

internalField   nonuniform List<vector> 
100
(
(1.48134e-11 0 0)
(6.9859e-12 0 0)
(1.06008e-13 0 0)
(-5.74708e-12 0 0)
(-8.90065e-12 0 0)
(9.41955e-12 0 0)
(5.68239e-12 0 0)
(-1.37874e-13 0 0)
(-8.95008e-13 0 0)
(3.41714e-12 0 0)
(-1.06478e-12 0 0)
(-7.33178e-12 0 0)
(-3.34531e-12 0 0)
(-4.0699e-12 0 0)
(1.00507e-11 0 0)
(1.10407e-12 0 0)
(-9.65379e-12 0 0)
(-3.59516e-11 0 0)
(-4.77647e-10 0 0)
(-6.19845e-09 0 0)
(-7.87286e-08 0 0)
(-9.80641e-07 0 0)
(-1.20003e-05 0 0)
(-0.000144376 0 0)
(-0.00170896 0 0)
(-0.0199173 0 0)
(-0.228724 0 0)
(-2.58868 0 0)
(-28.6958 0 0)
(-290.862 0 0)
(-1994.98 0 0)
(-6644.21 0 0)
(-12244 0 0)
(-16407.8 0 0)
(-18685.5 0 0)
(-19535.4 0 0)
(-19647.6 0 0)
(-19565.8 0 0)
(-19486 0 0)
(-19430.9 0 0)
(-19390.3 0 0)
(-19353.7 0 0)
(-19305.7 0 0)
(-19236.9 0 0)
(-19157.5 0 0)
(-19091 0 0)
(-19051.2 0 0)
(-19027.3 0 0)
(-18855 0 0)
(-15466.2 0 0)
(-10840.4 0 0)
(-9513.11 0 0)
(-9313.49 0 0)
(-9204.16 0 0)
(-9059.05 0 0)
(-8877.74 0 0)
(-8679.31 0 0)
(-8482.6 0 0)
(-8298.06 0 0)
(-8125.07 0 0)
(-7954.24 0 0)
(-7772.47 0 0)
(-7567.83 0 0)
(-7332.35 0 0)
(-7062.54 0 0)
(-6758.23 0 0)
(-6421.02 0 0)
(-6052.66 0 0)
(-5654 0 0)
(-5224.38 0 0)
(-4761.57 0 0)
(-4262.04 0 0)
(-3721.58 0 0)
(-3135.87 0 0)
(-2501.08 0 0)
(-1814.3 0 0)
(-1073.72 0 0)
(-278.78 0 0)
(569.886 0 0)
(1470.53 0 0)
(2420.37 0 0)
(3415.66 0 0)
(4451.71 0 0)
(5522.86 0 0)
(6622.35 0 0)
(7742.17 0 0)
(8872.68 0 0)
(10002.2 0 0)
(11116.4 0 0)
(12197.3 0 0)
(13222.6 0 0)
(14163.6 0 0)
(14984.6 0 0)
(15641 0 0)
(16079.2 0 0)
(16237.9 0 0)
(16055.2 0 0)
(15481.6 0 0)
(14505.2 0 0)
(13279.1 0 0)
)
;

boundaryField
{
    sides
    {
        type            zeroGradient;
    }
    empty
    {
        type            empty;
    }
}


// ************************************************************************* //
