/*--------------------------------*- C++ -*----------------------------------*\
| =========                 |                                                 |
| \\      /  F ield         | OpenFOAM: The Open Source CFD Toolbox           |
|  \\    /   O peration     | Version:  2312                                  |
|   \\  /    A nd           | Website:  www.openfoam.com                      |
|    \\/     M anipulation  |                                                 |
\*---------------------------------------------------------------------------*/
FoamFile
{
    version     2.0;
    format      ascii;
    arch        "LSB;label=32;scalar=64";
    class       volVectorField;
    location    "5e-05";
    object      U;
}
// * * * * * * * * * * * * * * * * * * * * * * * * * * * * * * * * * * * * * //

dimensions      [0 1 -1 0 0 0 0];

internalField   nonuniform List<vector> 
100
(
(1.22585e-16 0 0)
(2.37354e-16 0 0)
(8.55452e-17 0 0)
(-2.05946e-16 0 0)
(-2.39539e-16 0 0)
(1.22585e-16 0 0)
(2.37354e-16 0 0)
(9.5476e-17 0 0)
(-2.47285e-16 0 0)
(-5.0027e-17 0 0)
(2.75889e-16 0 0)
(-3.1833e-17 0 0)
(0 0 0)
(1.1056e-16 0 0)
(-7.87267e-17 0 0)
(-3.89761e-17 0 0)
(7.14308e-18 0 0)
(0 0 0)
(1.1056e-16 0 0)
(-7.87267e-17 0 0)
(0 0 0)
(-3.1833e-17 0 0)
(0 0 0)
(1.1056e-16 0 0)
(-1.17703e-16 0 0)
(1.0904e-16 0 0)
(-2.20511e-16 0 0)
(-7.4305e-18 0 0)
(2.36605e-16 0 0)
(5.30473e-17 0 0)
(3.11208e-17 0 0)
(0 0 0)
(0 0 0)
(-1.38596e-17 0 0)
(2.58125e-17 0 0)
(-1.19529e-17 0 0)
(0 0 0)
(0 0 0)
(-1.38596e-17 0 0)
(-1.454e-16 0 0)
(-1.54634e-16 0 0)
(-6.93027e-13 0 0)
(-2.78022e-09 0 0)
(-8.70228e-06 0 0)
(-0.0214998 0 0)
(-0.699683 0 0)
(-4.30032 0 0)
(-16.473 0 0)
(-38.192 0 0)
(-14.6635 0 0)
(75.9389 0 0)
(14.3521 0 0)
(0.704539 0 0)
(0.0249394 0 0)
(0.000630965 0 0)
(1.23625e-05 0 0)
(1.89714e-07 0 0)
(2.32863e-09 0 0)
(2.29033e-11 0 0)
(1.38569e-13 0 0)
(-4.00702e-14 0 0)
(8.76796e-14 0 0)
(0 0 0)
(0 0 0)
(5.8592e-14 0 0)
(-1.47238e-13 0 0)
(8.86458e-14 0 0)
(0 0 0)
(0 0 0)
(7.45306e-14 0 0)
(-8.76796e-14 0 0)
(2.81105e-13 0 0)
(2.56642e-13 0 0)
(6.27846e-14 0 0)
(-2.08991e-13 0 0)
(-3.91541e-13 0 0)
(4.6853e-14 0 0)
(0 0 0)
(4.42573e-13 0 0)
(-9.78853e-14 0 0)
(-3.91541e-13 0 0)
(7.39554e-14 0 0)
(-2.71024e-14 0 0)
(4.42573e-13 0 0)
(-9.78853e-14 0 0)
(-3.91541e-13 0 0)
(7.39554e-14 0 0)
(-1.47911e-14 0 0)
(4.30262e-13 0 0)
(2.7267e-13 0 0)
(-4.50433e-13 0 0)
(-4.00829e-13 0 0)
(4.00616e-13 0 0)
(3.89522e-13 0 0)
(-3.39739e-14 0 0)
(-4.45085e-13 0 0)
(-2.99773e-13 0 0)
(3.8931e-13 0 0)
(3.89522e-13 0 0)
(-3.39739e-14 0 0)
)
;

boundaryField
{
    sides
    {
        type            zeroGradient;
    }
    empty
    {
        type            empty;
    }
}


// ************************************************************************* //
