/*--------------------------------*- C++ -*----------------------------------*\
| =========                 |                                                 |
| \\      /  F ield         | OpenFOAM: The Open Source CFD Toolbox           |
|  \\    /   O peration     | Version:  2312                                  |
|   \\  /    A nd           | Website:  www.openfoam.com                      |
|    \\/     M anipulation  |                                                 |
\*---------------------------------------------------------------------------*/
FoamFile
{
    version     2.0;
    format      ascii;
    arch        "LSB;label=32;scalar=64";
    class       volScalarField;
    location    "0.068";
    object      p;
}
// * * * * * * * * * * * * * * * * * * * * * * * * * * * * * * * * * * * * * //

dimensions      [1 -1 -2 0 0 0 0];

internalField   nonuniform List<scalar> 
100
(
27404.7
27388.3
27107.8
27247.6
26709
27121.4
26284.2
26994.8
25865.4
26837.8
25487.8
26621.8
25178.7
26331.8
24945.9
25974.8
24775
25578.1
24636
25177.5
24498.1
24802.3
24341.3
24467.6
24160.4
24174.2
23961.8
23915.1
23755.6
23682
23551.3
23469.1
23355.3
23273.3
23171.4
23093.8
23002.2
22931
22849.1
22785.7
22713.5
22658.6
22596.2
22550.4
22498
22461.6
22419.2
22392.1
22359.8
22342.6
22321.4
22316.4
22312
22330.6
22365.1
22449.7
22600
22880.5
23342.1
24061.3
25039.6
26222.8
27447.8
28569.5
29462.7
30120.8
30555.1
30842.3
31011.4
31124.9
31186
31234.3
31257.2
31283
31293.4
31311.7
31318.3
31334.3
31339.9
31355.1
31360.3
31375.3
31379.9
31394.6
31398.1
31412.5
31414.8
31428.3
31429.7
31441.7
31443.2
31452.2
31455.7
31459.4
31467.1
31462.1
31476.3
31458.5
31480.8
31444.3
)
;

boundaryField
{
    sides
    {
        type            zeroGradient;
    }
    empty
    {
        type            empty;
    }
}


// ************************************************************************* //
