/*--------------------------------*- C++ -*----------------------------------*\
| =========                 |                                                 |
| \\      /  F ield         | OpenFOAM: The Open Source CFD Toolbox           |
|  \\    /   O peration     | Version:  2312                                  |
|   \\  /    A nd           | Website:  www.openfoam.com                      |
|    \\/     M anipulation  |                                                 |
\*---------------------------------------------------------------------------*/
FoamFile
{
    version     2.0;
    format      ascii;
    arch        "LSB;label=32;scalar=64";
    class       volScalarField;
    location    "0.068";
    object      T;
}
// * * * * * * * * * * * * * * * * * * * * * * * * * * * * * * * * * * * * * //

dimensions      [0 0 0 1 0 0 0];

internalField   nonuniform List<scalar> 
100
(
230.323
230.591
228.375
230.022
225.404
229.33
222.1
228.585
218.93
227.669
216.296
226.409
214.452
224.699
213.437
222.589
213.069
220.279
213.036
218.027
213.028
216.033
212.848
214.379
212.436
213.038
211.832
211.929
211.113
210.971
210.349
210.11
209.59
209.322
208.867
208.604
208.202
207.965
207.618
207.422
207.135
206.993
206.775
206.698
206.554
206.548
206.482
206.549
206.558
206.693
206.772
206.969
207.116
207.383
207.628
208.037
208.527
209.347
210.512
212.316
214.696
217.644
220.672
223.503
225.704
227.344
228.331
228.966
229.21
229.338
229.248
229.155
228.922
228.729
228.43
228.184
227.847
227.567
227.203
226.896
226.506
226.173
225.754
225.395
224.943
224.556
224.072
223.658
223.149
222.71
222.196
221.735
221.245
220.763
220.334
219.829
219.499
218.965
218.766
218.204
)
;

boundaryField
{
    sides
    {
        type            zeroGradient;
    }
    empty
    {
        type            empty;
    }
}


// ************************************************************************* //
