/*--------------------------------*- C++ -*----------------------------------*\
| =========                 |                                                 |
| \\      /  F ield         | OpenFOAM: The Open Source CFD Toolbox           |
|  \\    /   O peration     | Version:  2312                                  |
|   \\  /    A nd           | Website:  www.openfoam.com                      |
|    \\/     M anipulation  |                                                 |
\*---------------------------------------------------------------------------*/
FoamFile
{
    version     2.0;
    format      ascii;
    arch        "LSB;label=32;scalar=64";
    class       volScalarField;
    location    "0.068";
    object      thermo:e;
}
// * * * * * * * * * * * * * * * * * * * * * * * * * * * * * * * * * * * * * //

dimensions      [0 2 -2 0 0 0 0];

internalField   nonuniform List<scalar> 
100
(
165648
165841
164247
165432
162111
164934
159735
164398
157455
163740
155560
162833
154234
161604
153504
160086
153239
158425
153215
156805
153210
155371
153080
154182
152784
153217
152349
152419
151832
151730
151283
151111
150737
150544
150217
150028
149739
149568
149319
149178
148972
148870
148713
148657
148554
148550
148502
148550
148557
148653
148710
148852
148958
149150
149326
149620
149973
150562
151400
152698
154409
156529
158707
160744
162326
163506
164215
164673
164848
164940
164875
164808
164641
164502
164287
164110
163867
163667
163404
163184
162903
162664
162362
162104
161779
161501
161152
160855
160489
160173
159804
159472
159119
158773
158464
158101
157864
157480
157337
156932
)
;

boundaryField
{
    sides
    {
        type            zeroGradient;
    }
    empty
    {
        type            empty;
    }
}


// ************************************************************************* //
