/*--------------------------------*- C++ -*----------------------------------*\
| =========                 |                                                 |
| \\      /  F ield         | OpenFOAM: The Open Source CFD Toolbox           |
|  \\    /   O peration     | Version:  2312                                  |
|   \\  /    A nd           | Website:  www.openfoam.com                      |
|    \\/     M anipulation  |                                                 |
\*---------------------------------------------------------------------------*/
FoamFile
{
    version     2.0;
    format      ascii;
    arch        "LSB;label=32;scalar=64";
    class       volVectorField;
    location    "0.068";
    object      U;
}
// * * * * * * * * * * * * * * * * * * * * * * * * * * * * * * * * * * * * * //

dimensions      [0 1 -1 0 0 0 0];

internalField   nonuniform List<vector> 
100
(
(190.903 0 0)
(192.243 0 0)
(193.009 0 0)
(194.695 0 0)
(195.275 0 0)
(196.987 0 0)
(197.449 0 0)
(199.091 0 0)
(199.58 0 0)
(201.032 0 0)
(201.699 0 0)
(202.856 0 0)
(203.801 0 0)
(204.625 0 0)
(205.859 0 0)
(206.404 0 0)
(207.841 0 0)
(208.232 0 0)
(209.734 0 0)
(210.114 0 0)
(211.551 0 0)
(212.024 0 0)
(213.325 0 0)
(213.928 0 0)
(215.08 0 0)
(215.798 0 0)
(216.827 0 0)
(217.618 0 0)
(218.561 0 0)
(219.383 0 0)
(220.267 0 0)
(221.088 0 0)
(221.927 0 0)
(222.725 0 0)
(223.521 0 0)
(224.284 0 0)
(225.033 0 0)
(225.75 0 0)
(226.445 0 0)
(227.108 0 0)
(227.743 0 0)
(228.343 0 0)
(228.913 0 0)
(229.446 0 0)
(229.946 0 0)
(230.409 0 0)
(230.838 0 0)
(231.228 0 0)
(231.583 0 0)
(231.896 0 0)
(232.163 0 0)
(232.368 0 0)
(232.484 0 0)
(232.451 0 0)
(232.167 0 0)
(231.435 0 0)
(229.937 0 0)
(227.203 0 0)
(222.694 0 0)
(216.058 0 0)
(207.499 0 0)
(197.932 0 0)
(188.652 0 0)
(180.766 0 0)
(174.786 0 0)
(170.666 0 0)
(168.037 0 0)
(166.469 0 0)
(165.595 0 0)
(165.152 0 0)
(164.97 0 0)
(164.941 0 0)
(165.005 0 0)
(165.12 0 0)
(165.269 0 0)
(165.436 0 0)
(165.615 0 0)
(165.802 0 0)
(165.996 0 0)
(166.196 0 0)
(166.401 0 0)
(166.612 0 0)
(166.828 0 0)
(167.052 0 0)
(167.282 0 0)
(167.52 0 0)
(167.765 0 0)
(168.018 0 0)
(168.28 0 0)
(168.546 0 0)
(168.824 0 0)
(169.102 0 0)
(169.399 0 0)
(169.689 0 0)
(170.01 0 0)
(170.316 0 0)
(170.67 0 0)
(171.004 0 0)
(171.4 0 0)
(171.747 0 0)
)
;

boundaryField
{
    sides
    {
        type            mywaveTransmissive;
        gamma           1.4;
        value           nonuniform List<vector> 2((171.809 0 0) (190.587 0 0));
    }
    empty
    {
        type            empty;
    }
}


// ************************************************************************* //
