/*--------------------------------*- C++ -*----------------------------------*\
| =========                 |                                                 |
| \\      /  F ield         | OpenFOAM: The Open Source CFD Toolbox           |
|  \\    /   O peration     | Version:  2312                                  |
|   \\  /    A nd           | Website:  www.openfoam.com                      |
|    \\/     M anipulation  |                                                 |
\*---------------------------------------------------------------------------*/
FoamFile
{
    version     2.0;
    format      ascii;
    arch        "LSB;label=32;scalar=64";
    class       volScalarField;
    location    "0.017";
    object      rho;
}
// * * * * * * * * * * * * * * * * * * * * * * * * * * * * * * * * * * * * * //

dimensions      [1 -3 0 0 0 0 0];

internalField   nonuniform List<scalar> 
100
(
0.96668
0.961941
0.955021
0.946741
0.937347
0.927338
0.916961
0.906396
0.895732
0.885018
0.874279
0.863525
0.852764
0.841999
0.831235
0.820473
0.809717
0.798973
0.788244
0.777538
0.766861
0.756218
0.745634
0.735059
0.724656
0.714097
0.704007
0.693446
0.68361
0.673366
0.663367
0.653837
0.64367
0.634475
0.624741
0.615525
0.606258
0.597213
0.588302
0.57954
0.570941
0.562523
0.554303
0.546291
0.538498
0.530948
0.523678
0.516729
0.510139
0.503948
0.498197
0.492943
0.48825
0.484181
0.480764
0.477982
0.475795
0.474155
0.47299
0.472191
0.471652
0.471319
0.471164
0.471092
0.470947
0.470667
0.470409
0.470411
0.470677
0.470864
0.470593
0.469909
0.469352
0.469477
0.47022
0.470865
0.470497
0.469205
0.467568
0.467384
0.468265
0.470796
0.471549
0.471019
0.467508
0.463911
0.462772
0.465476
0.474331
0.485331
0.496258
0.500228
0.494135
0.476318
0.450082
0.41883
0.38825
0.359947
0.338281
0.32078
)
;

boundaryField
{
    sides
    {
        type            zeroGradient;
    }
    empty
    {
        type            empty;
    }
}


// ************************************************************************* //
