/*--------------------------------*- C++ -*----------------------------------*\
| =========                 |                                                 |
| \\      /  F ield         | OpenFOAM: The Open Source CFD Toolbox           |
|  \\    /   O peration     | Version:  2312                                  |
|   \\  /    A nd           | Website:  www.openfoam.com                      |
|    \\/     M anipulation  |                                                 |
\*---------------------------------------------------------------------------*/
FoamFile
{
    version     2.0;
    format      ascii;
    arch        "LSB;label=32;scalar=64";
    class       volScalarField;
    location    "0.017";
    object      T;
}
// * * * * * * * * * * * * * * * * * * * * * * * * * * * * * * * * * * * * * //

dimensions      [0 0 0 1 0 0 0];

internalField   nonuniform List<scalar> 
100
(
284.499
282.329
280.008
278.305
276.76
275.384
274.066
272.778
271.495
270.208
268.914
267.609
266.293
264.967
263.63
262.284
260.926
259.561
258.182
256.808
255.391
254.055
252.513
251.394
249.436
248.967
246.083
246.712
242.785
244.068
240.17
240.71
238.03
237.335
235.613
234.357
232.944
231.579
230.216
228.869
227.538
226.218
224.912
223.626
222.367
221.139
219.943
218.781
217.661
216.597
215.603
214.689
213.861
213.12
212.478
211.951
211.546
211.246
211.033
210.899
210.834
210.796
210.745
210.702
210.738
210.87
210.993
210.968
210.801
210.692
210.845
211.217
211.503
211.394
210.986
210.6
210.898
211.41
212.605
212.055
212.547
209.713
211.457
209.124
214.223
213.214
217.619
214.917
214.195
210.004
208.135
208.462
213.028
223.168
236.694
257.562
276.437
306.87
322.988
363.005
)
;

boundaryField
{
    sides
    {
        type            zeroGradient;
    }
    empty
    {
        type            empty;
    }
}


// ************************************************************************* //
