/*--------------------------------*- C++ -*----------------------------------*\
| =========                 |                                                 |
| \\      /  F ield         | OpenFOAM: The Open Source CFD Toolbox           |
|  \\    /   O peration     | Version:  2312                                  |
|   \\  /    A nd           | Website:  www.openfoam.com                      |
|    \\/     M anipulation  |                                                 |
\*---------------------------------------------------------------------------*/
FoamFile
{
    version     2.0;
    format      ascii;
    arch        "LSB;label=32;scalar=64";
    class       volScalarField;
    location    "0.017";
    object      thermo:e;
}
// * * * * * * * * * * * * * * * * * * * * * * * * * * * * * * * * * * * * * //

dimensions      [0 2 -2 0 0 0 0];

internalField   nonuniform List<scalar> 
100
(
204612
203051
201382
200157
199046
198056
197108
196182
195259
194334
193403
192464
191518
190564
189603
188634
187658
186676
185684
184696
183677
182717
181608
180803
179394
179057
176983
177435
174611
175534
172730
173118
171191
170691
169453
168550
167534
166551
165571
164603
163645
162696
161757
160832
159927
159043
158183
157347
156542
155777
155062
154405
153809
153276
152814
152435
152144
151928
151775
151679
151632
151604
151568
151537
151563
151658
151747
151728
151608
151530
151640
151907
152113
152035
151741
151464
151678
152046
152906
152510
152864
150826
152080
150402
154069
153344
156512
154568
154049
151035
149690
149926
153210
160502
170230
185239
198814
220701
232293
261073
)
;

boundaryField
{
    sides
    {
        type            zeroGradient;
    }
    empty
    {
        type            empty;
    }
}


// ************************************************************************* //
