/*--------------------------------*- C++ -*----------------------------------*\
| =========                 |                                                 |
| \\      /  F ield         | OpenFOAM: The Open Source CFD Toolbox           |
|  \\    /   O peration     | Version:  2312                                  |
|   \\  /    A nd           | Website:  www.openfoam.com                      |
|    \\/     M anipulation  |                                                 |
\*---------------------------------------------------------------------------*/
FoamFile
{
    version     2.0;
    format      ascii;
    arch        "LSB;label=32;scalar=64";
    class       volVectorField;
    location    "0.017";
    object      U;
}
// * * * * * * * * * * * * * * * * * * * * * * * * * * * * * * * * * * * * * //

dimensions      [0 1 -1 0 0 0 0];

internalField   nonuniform List<vector> 
100
(
(45.7732 0 0)
(49.5657 0 0)
(53.7053 0 0)
(57.8689 0 0)
(62.1916 0 0)
(66.5966 0 0)
(71.0825 0 0)
(75.626 0 0)
(80.2167 0 0)
(84.845 0 0)
(89.5038 0 0)
(94.1869 0 0)
(98.8887 0 0)
(103.604 0 0)
(108.329 0 0)
(113.058 0 0)
(117.79 0 0)
(122.52 0 0)
(127.245 0 0)
(131.97 0 0)
(136.676 0 0)
(141.406 0 0)
(146.063 0 0)
(150.841 0 0)
(155.395 0 0)
(160.274 0 0)
(164.712 0 0)
(169.623 0 0)
(174.138 0 0)
(178.805 0 0)
(183.641 0 0)
(188.001 0 0)
(192.963 0 0)
(197.365 0 0)
(202.141 0 0)
(206.691 0 0)
(211.327 0 0)
(215.908 0 0)
(220.473 0 0)
(225.01 0 0)
(229.514 0 0)
(233.978 0 0)
(238.389 0 0)
(242.736 0 0)
(247.005 0 0)
(251.184 0 0)
(255.249 0 0)
(259.177 0 0)
(262.934 0 0)
(266.488 0 0)
(269.803 0 0)
(272.842 0 0)
(275.566 0 0)
(277.938 0 0)
(279.93 0 0)
(281.539 0 0)
(282.786 0 0)
(283.707 0 0)
(284.349 0 0)
(284.771 0 0)
(285.043 0 0)
(285.218 0 0)
(285.313 0 0)
(285.338 0 0)
(285.329 0 0)
(285.347 0 0)
(285.417 0 0)
(285.484 0 0)
(285.467 0 0)
(285.361 0 0)
(285.264 0 0)
(285.294 0 0)
(285.456 0 0)
(285.601 0 0)
(285.579 0 0)
(285.34 0 0)
(285.132 0 0)
(285.035 0 0)
(285.401 0 0)
(285.608 0 0)
(286.041 0 0)
(285.533 0 0)
(285.265 0 0)
(284.356 0 0)
(284.059 0 0)
(284.049 0 0)
(283.9 0 0)
(283.861 0 0)
(282.172 0 0)
(279.853 0 0)
(275.898 0 0)
(271.704 0 0)
(267.29 0 0)
(263.764 0 0)
(260.593 0 0)
(258.747 0 0)
(256.056 0 0)
(254.43 0 0)
(249.003 0 0)
(243.437 0 0)
)
;

boundaryField
{
    sides
    {
        type            mywaveTransmissive;
        gamma           1.4;
        value           nonuniform List<vector> 2((244.716 0 0) (44.0984 0 0));
    }
    empty
    {
        type            empty;
    }
}


// ************************************************************************* //
