/*--------------------------------*- C++ -*----------------------------------*\
| =========                 |                                                 |
| \\      /  F ield         | OpenFOAM: The Open Source CFD Toolbox           |
|  \\    /   O peration     | Version:  2312                                  |
|   \\  /    A nd           | Website:  www.openfoam.com                      |
|    \\/     M anipulation  |                                                 |
\*---------------------------------------------------------------------------*/
FoamFile
{
    version     2.0;
    format      ascii;
    arch        "LSB;label=32;scalar=64";
    class       volScalarField;
    location    "0.047";
    object      T;
}
// * * * * * * * * * * * * * * * * * * * * * * * * * * * * * * * * * * * * * //

dimensions      [0 0 0 1 0 0 0];

internalField   nonuniform List<scalar> 
100
(
230.628
230.747
230.136
229.96
229.626
229.468
229.3
229.201
229.119
229.054
228.994
228.911
228.821
228.661
228.521
228.226
228.056
227.562
227.44
226.657
226.71
225.528
225.903
224.236
225.013
222.883
223.985
221.601
222.736
220.511
221.196
219.689
219.333
219.164
217.146
218.929
214.666
218.926
211.992
219
209.339
218.877
207.025
218.235
205.357
216.855
204.477
214.763
204.274
212.251
204.433
209.743
204.607
207.603
204.585
205.996
204.348
204.899
204.001
204.187
203.665
203.736
203.409
203.461
203.251
203.311
203.178
203.252
203.174
203.265
203.234
203.354
203.39
203.602
203.82
204.36
205.174
206.675
208.805
211.69
214.76
217.747
220.082
221.881
222.993
223.794
224.199
224.539
224.667
224.836
224.872
224.985
224.994
225.088
225.092
225.18
225.186
225.271
225.281
225.373
)
;

boundaryField
{
    sides
    {
        type            zeroGradient;
    }
    empty
    {
        type            empty;
    }
}


// ************************************************************************* //
