/*--------------------------------*- C++ -*----------------------------------*\
| =========                 |                                                 |
| \\      /  F ield         | OpenFOAM: The Open Source CFD Toolbox           |
|  \\    /   O peration     | Version:  2312                                  |
|   \\  /    A nd           | Website:  www.openfoam.com                      |
|    \\/     M anipulation  |                                                 |
\*---------------------------------------------------------------------------*/
FoamFile
{
    version     2.0;
    format      ascii;
    arch        "LSB;label=32;scalar=64";
    class       volScalarField;
    location    "0.047";
    object      thermo:e;
}
// * * * * * * * * * * * * * * * * * * * * * * * * * * * * * * * * * * * * * //

dimensions      [0 2 -2 0 0 0 0];

internalField   nonuniform List<scalar> 
100
(
165868
165954
165514
165388
165147
165033
164912
164841
164782
164736
164693
164632
164568
164453
164352
164140
164018
163663
163575
163011
163050
162200
162470
161271
161830
160298
161090
159376
160191
158591
159084
158000
157744
157622
156171
157453
154388
157451
152465
157504
150557
157416
148892
156954
147692
155962
147060
154458
146914
152651
147028
150847
147153
149308
147137
148153
146967
147363
146717
146851
146476
146527
146292
146329
146178
146221
146125
146179
146123
146188
146166
146252
146278
146430
146588
146975
147561
148641
150172
152247
154455
156604
158283
159577
160376
160952
161244
161488
161580
161702
161728
161809
161816
161883
161886
161949
161954
162015
162022
162089
)
;

boundaryField
{
    sides
    {
        type            zeroGradient;
    }
    empty
    {
        type            empty;
    }
}


// ************************************************************************* //
