/*--------------------------------*- C++ -*----------------------------------*\
| =========                 |                                                 |
| \\      /  F ield         | OpenFOAM: The Open Source CFD Toolbox           |
|  \\    /   O peration     | Version:  2312                                  |
|   \\  /    A nd           | Website:  www.openfoam.com                      |
|    \\/     M anipulation  |                                                 |
\*---------------------------------------------------------------------------*/
FoamFile
{
    version     2.0;
    format      ascii;
    arch        "LSB;label=32;scalar=64";
    class       volVectorField;
    location    "0.047";
    object      U;
}
// * * * * * * * * * * * * * * * * * * * * * * * * * * * * * * * * * * * * * //

dimensions      [0 1 -1 0 0 0 0];

internalField   nonuniform List<vector> 
100
(
(160.993 0 0)
(162.538 0 0)
(164.428 0 0)
(166.23 0 0)
(168.102 0 0)
(169.945 0 0)
(171.82 0 0)
(173.697 0 0)
(175.592 0 0)
(177.498 0 0)
(179.42 0 0)
(181.352 0 0)
(183.3 0 0)
(185.249 0 0)
(187.221 0 0)
(189.176 0 0)
(191.173 0 0)
(193.12 0 0)
(195.145 0 0)
(197.068 0 0)
(199.124 0 0)
(201.017 0 0)
(203.097 0 0)
(204.969 0 0)
(207.045 0 0)
(208.927 0 0)
(210.952 0 0)
(212.891 0 0)
(214.809 0 0)
(216.846 0 0)
(218.614 0 0)
(220.77 0 0)
(222.366 0 0)
(224.643 0 0)
(226.059 0 0)
(228.44 0 0)
(229.684 0 0)
(232.127 0 0)
(233.243 0 0)
(235.654 0 0)
(236.742 0 0)
(238.967 0 0)
(240.17 0 0)
(242.036 0 0)
(243.475 0 0)
(244.867 0 0)
(246.569 0 0)
(247.489 0 0)
(249.351 0 0)
(249.924 0 0)
(251.749 0 0)
(252.153 0 0)
(253.748 0 0)
(254.124 0 0)
(255.379 0 0)
(255.786 0 0)
(256.7 0 0)
(257.118 0 0)
(257.761 0 0)
(258.147 0 0)
(258.606 0 0)
(258.935 0 0)
(259.278 0 0)
(259.549 0 0)
(259.817 0 0)
(260.042 0 0)
(260.26 0 0)
(260.446 0 0)
(260.618 0 0)
(260.751 0 0)
(260.84 0 0)
(260.835 0 0)
(260.666 0 0)
(260.171 0 0)
(259.067 0 0)
(256.867 0 0)
(252.929 0 0)
(246.695 0 0)
(238.177 0 0)
(228.279 0 0)
(218.483 0 0)
(210.122 0 0)
(203.833 0 0)
(199.578 0 0)
(196.939 0 0)
(195.428 0 0)
(194.645 0 0)
(194.303 0 0)
(194.225 0 0)
(194.298 0 0)
(194.458 0 0)
(194.665 0 0)
(194.902 0 0)
(195.152 0 0)
(195.412 0 0)
(195.675 0 0)
(195.942 0 0)
(196.209 0 0)
(196.479 0 0)
(196.694 0 0)
)
;

boundaryField
{
    sides
    {
        type            mywaveTransmissive;
        gamma           1.4;
        value           nonuniform List<vector> 2((196.791 0 0) (160.51 0 0));
    }
    empty
    {
        type            empty;
    }
}


// ************************************************************************* //
