/*--------------------------------*- C++ -*----------------------------------*\
| =========                 |                                                 |
| \\      /  F ield         | OpenFOAM: The Open Source CFD Toolbox           |
|  \\    /   O peration     | Version:  2312                                  |
|   \\  /    A nd           | Website:  www.openfoam.com                      |
|    \\/     M anipulation  |                                                 |
\*---------------------------------------------------------------------------*/
FoamFile
{
    version     2.0;
    format      ascii;
    arch        "LSB;label=32;scalar=64";
    class       volScalarField;
    location    "0.0001";
    object      p;
}
// * * * * * * * * * * * * * * * * * * * * * * * * * * * * * * * * * * * * * //

dimensions      [1 -1 -2 0 0 0 0];

internalField   nonuniform List<scalar> 
500
(
359725
359830
359894
359938
359971
359998
360021
360041
360058
360074
360089
360102
360115
360127
360139
360150
360161
360171
360181
360191
360201
360211
360220
360230
360239
360249
360258
360268
360277
360287
360296
360306
360316
360326
360336
360346
360356
360366
360377
360387
360398
360409
360421
360432
360444
360456
360468
360480
360493
360506
360519
360532
360546
360560
360575
360590
360605
360620
360636
360653
360669
360687
360704
360722
360741
360760
360780
360800
360820
360842
360863
360886
360909
360933
360957
360982
361008
361035
361062
361091
361120
361150
361181
361212
361245
361279
361314
361350
361387
361426
361466
361506
361549
361592
361638
361684
361732
361782
361834
361887
361942
361999
362058
362119
362182
362248
362315
362386
362458
362533
362611
362692
362776
362863
362953
363047
363144
363244
363349
363457
363570
363687
363808
363934
364065
364201
364343
364490
364643
364801
364967
365138
365317
365503
365697
365898
366108
366326
366553
366790
367036
367293
367560
367839
368129
368431
368746
369075
369418
369775
370147
370535
370941
371363
371804
372264
372743
373244
373766
374312
374881
375475
376095
376743
377419
378125
378862
379632
380437
381277
382154
383071
384029
385029
386075
387168
388309
389503
390750
392054
393416
394841
396330
397888
399516
401219
402999
404861
406809
408846
410978
413207
415540
417981
420536
423209
426008
428937
432003
435214
438576
442097
445784
449647
453693
457933
462375
467032
471912
477028
482392
488016
493915
500103
506593
513403
520549
528049
535921
544185
552861
561972
571540
581588
592143
603231
614878
627113
639964
653457
667597
682434
697999
714319
731413
749292
767949
787344
807390
827909
848586
868865
887801
903808
914269
914968
899361
857988
779008
652354
482537
305024
175035
117297
102857
100419
100058
100006
99998.8
99997.7
99997.6
99997.6
99997.6
99997.6
99997.6
99997.6
99997.6
99997.6
99997.6
99997.6
99997.6
99997.6
99997.6
99997.6
99997.6
99997.6
99997.6
99997.6
99997.6
99997.6
99997.6
99997.6
99997.6
99997.6
99997.6
99997.6
99997.6
99997.6
99997.6
99997.6
99997.6
99997.6
99997.6
99997.6
99997.6
99997.6
99997.6
99997.6
99997.6
99997.6
99997.6
99997.6
99997.6
99997.6
99997.6
99997.6
99997.6
99997.6
99997.6
99997.6
99997.6
99997.6
99997.6
99997.6
99997.6
99997.6
99997.6
99997.6
99997.6
99997.6
99997.6
99997.6
99997.6
99997.6
99997.6
99997.6
99997.6
99997.6
99997.6
99997.6
99997.6
99997.6
99997.6
99997.6
99997.6
99997.6
99997.6
99997.6
99997.6
99997.6
99997.6
99997.6
99997.6
99997.6
99997.6
99997.6
99997.6
99997.6
99997.6
99997.6
99997.6
99997.6
99997.6
99997.6
99997.6
99997.6
99997.6
99997.6
99997.6
99997.6
99997.6
99997.6
99997.6
99997.6
99997.6
99997.6
99997.6
99997.6
99997.6
99997.6
99997.6
99997.6
99997.6
99997.6
99997.6
99997.6
99997.6
99997.6
99997.6
99997.6
99997.6
99997.6
99997.6
99997.6
99997.6
99997.6
99997.6
99997.6
99997.6
99997.6
99997.6
99997.6
99997.6
99997.6
99997.6
99997.6
99997.6
99997.6
99997.6
99997.6
99997.6
99997.6
99997.6
99997.6
99997.6
99997.6
99997.6
99997.6
99997.6
99997.6
99997.6
99997.6
99997.6
99997.6
99997.6
99997.6
99997.6
99997.6
99997.6
99997.6
99997.6
99997.6
99997.6
99997.6
99997.6
99997.6
99997.6
99997.6
99997.6
99997.6
99997.6
99997.6
99997.6
99997.6
99997.6
99997.6
99997.6
99997.6
99997.6
99997.6
99997.6
99997.6
99997.6
99997.6
99997.6
99997.6
99997.6
99997.6
99997.6
99997.6
99997.6
99997.6
99997.6
99997.6
99997.6
99997.6
99997.6
99997.6
99997.6
99997.6
99997.6
99997.6
99997.6
99997.6
99997.6
99997.6
99997.6
99997.6
99997.6
99997.6
99997.6
99997.6
99997.6
99997.6
99997.6
99997.6
99997.6
99997.6
99997.6
99997.6
99997.6
99997.6
99997.6
99997.6
99997.6
99997.6
99997.6
99997.6
99997.6
99997.6
99997.6
99997.6
99997.6
99997.6
99997.6
99997.6
99997.6
99997.6
99997.6
99997.6
)
;

boundaryField
{
    wedge0
    {
        type            wedge;
    }
    wedge1
    {
        type            wedge;
    }
    wedge2
    {
        type            wedge;
    }
    wedge3
    {
        type            wedge;
    }
    outlet
    {
        type            zeroGradient;
    }
    defaultFaces
    {
        type            empty;
    }
}


// ************************************************************************* //
