/*--------------------------------*- C++ -*----------------------------------*\
| =========                 |                                                 |
| \\      /  F ield         | OpenFOAM: The Open Source CFD Toolbox           |
|  \\    /   O peration     | Version:  2312                                  |
|   \\  /    A nd           | Website:  www.openfoam.com                      |
|    \\/     M anipulation  |                                                 |
\*---------------------------------------------------------------------------*/
FoamFile
{
    version     2.0;
    format      ascii;
    arch        "LSB;label=32;scalar=64";
    class       volScalarField;
    location    "0.0001";
    object      rho;
}
// * * * * * * * * * * * * * * * * * * * * * * * * * * * * * * * * * * * * * //

dimensions      [1 -3 0 0 0 0 0];

internalField   nonuniform List<scalar> 
500
(
0.00536333
0.00536596
0.0053697
0.00537474
0.00538121
0.00538914
0.00539857
0.00540952
0.00542201
0.00543605
0.00545165
0.00546883
0.00548762
0.00550801
0.00553004
0.00555371
0.00557906
0.0056061
0.00563485
0.00566534
0.0056976
0.00573164
0.00576751
0.00580522
0.00584482
0.00588633
0.00592979
0.00597524
0.00602272
0.00607226
0.00612391
0.00617772
0.00623372
0.00629198
0.00635254
0.00641545
0.00648077
0.00654856
0.00661888
0.00669179
0.00676736
0.00684565
0.00692674
0.00701071
0.00709763
0.00718758
0.00728065
0.00737692
0.00747649
0.00757944
0.00768589
0.00779593
0.00790968
0.00802723
0.00814871
0.00827424
0.00840395
0.00853796
0.00867641
0.00881944
0.0089672
0.00911985
0.00927754
0.00944044
0.00960872
0.00978256
0.00996214
0.0101477
0.0103393
0.0105374
0.010742
0.0109534
0.0111718
0.0113975
0.0116308
0.0118718
0.012121
0.0123785
0.0126447
0.01292
0.0132045
0.0134987
0.0138029
0.0141174
0.0144428
0.0147793
0.0151274
0.0154875
0.0158601
0.0162456
0.0166446
0.0170575
0.0174849
0.0179273
0.0183853
0.0188595
0.0193506
0.0198592
0.0203859
0.0209315
0.0214967
0.0220824
0.0226892
0.023318
0.0239697
0.0246453
0.0253456
0.0260716
0.0268244
0.027605
0.0284146
0.0292542
0.0301252
0.0310288
0.0319662
0.0329389
0.0339483
0.0349958
0.036083
0.0372115
0.0383829
0.0395991
0.0408618
0.0421729
0.0435344
0.0449483
0.0464168
0.047942
0.0495263
0.051172
0.0528816
0.0546578
0.0565032
0.0584206
0.060413
0.0624833
0.0646346
0.0668704
0.0691939
0.0716086
0.0741183
0.0767267
0.0794378
0.0822557
0.0851846
0.0882289
0.0913932
0.0946823
0.0981011
0.101655
0.105348
0.109188
0.113178
0.117326
0.121637
0.126118
0.130775
0.135616
0.140646
0.145874
0.151307
0.156953
0.162821
0.168918
0.175253
0.181836
0.188676
0.195782
0.203166
0.210836
0.218805
0.227084
0.235684
0.244618
0.253897
0.263537
0.273549
0.283948
0.294749
0.305967
0.317619
0.32972
0.342289
0.355342
0.368899
0.38298
0.397603
0.412792
0.428568
0.444953
0.461973
0.479652
0.498017
0.517095
0.536915
0.557508
0.578904
0.601137
0.624243
0.648256
0.673215
0.699161
0.726136
0.754182
0.783348
0.81368
0.845232
0.878056
0.912208
0.947749
0.984739
1.02325
1.06334
1.10509
1.14857
1.19386
1.24106
1.29023
1.34149
1.39491
1.45062
1.5087
1.56927
1.63245
1.69835
1.76711
1.83884
1.91368
1.99177
2.07318
2.15767
2.24551
2.33699
2.43229
2.53154
2.63484
2.74221
2.8536
2.96877
3.08727
3.20816
3.32981
3.44939
3.56206
3.65974
3.72924
3.74974
3.69031
3.51019
3.16882
2.65681
2.05749
1.54859
1.27043
1.18212
1.16434
1.16149
1.16107
1.16101
1.161
1.161
1.161
1.161
1.161
1.161
1.161
1.161
1.161
1.161
1.161
1.161
1.161
1.161
1.161
1.161
1.161
1.161
1.161
1.161
1.161
1.161
1.161
1.161
1.161
1.161
1.161
1.161
1.161
1.161
1.161
1.161
1.161
1.161
1.161
1.161
1.161
1.161
1.161
1.161
1.161
1.161
1.161
1.161
1.161
1.161
1.161
1.161
1.161
1.161
1.161
1.161
1.161
1.161
1.161
1.161
1.161
1.161
1.161
1.161
1.161
1.161
1.161
1.161
1.161
1.161
1.161
1.161
1.161
1.161
1.161
1.161
1.161
1.161
1.161
1.161
1.161
1.161
1.161
1.161
1.161
1.161
1.161
1.161
1.161
1.161
1.161
1.161
1.161
1.161
1.161
1.161
1.161
1.161
1.161
1.161
1.161
1.161
1.161
1.161
1.161
1.161
1.161
1.161
1.161
1.161
1.161
1.161
1.161
1.161
1.161
1.161
1.161
1.161
1.161
1.161
1.161
1.161
1.161
1.161
1.161
1.161
1.161
1.161
1.161
1.161
1.161
1.161
1.161
1.161
1.161
1.161
1.161
1.161
1.161
1.161
1.161
1.161
1.161
1.161
1.161
1.161
1.161
1.161
1.161
1.161
1.161
1.161
1.161
1.161
1.161
1.161
1.161
1.161
1.161
1.161
1.161
1.161
1.161
1.161
1.161
1.161
1.161
1.161
1.161
1.161
1.161
1.161
1.161
1.161
1.161
1.161
1.161
1.161
1.161
1.161
1.161
1.161
1.161
1.161
1.161
1.161
1.161
1.161
1.161
1.161
1.161
1.161
1.161
1.161
1.161
1.161
1.161
1.161
1.161
1.161
1.161
1.161
1.161
1.161
1.161
1.161
1.161
1.161
1.161
1.161
1.161
1.161
1.161
1.161
1.161
1.161
1.161
1.161
1.161
1.161
1.161
1.161
1.161
1.161
1.161
1.161
1.161
1.161
1.161
1.161
1.161
1.161
1.161
1.161
1.161
1.161
1.161
1.161
1.161
1.161
1.161
1.161
1.161
1.161
1.161
)
;

boundaryField
{
    wedge0
    {
        type            wedge;
    }
    wedge1
    {
        type            wedge;
    }
    wedge2
    {
        type            wedge;
    }
    wedge3
    {
        type            wedge;
    }
    outlet
    {
        type            zeroGradient;
    }
    defaultFaces
    {
        type            empty;
    }
}


// ************************************************************************* //
