/*--------------------------------*- C++ -*----------------------------------*\
| =========                 |                                                 |
| \\      /  F ield         | OpenFOAM: The Open Source CFD Toolbox           |
|  \\    /   O peration     | Version:  2312                                  |
|   \\  /    A nd           | Website:  www.openfoam.com                      |
|    \\/     M anipulation  |                                                 |
\*---------------------------------------------------------------------------*/
FoamFile
{
    version     2.0;
    format      ascii;
    arch        "LSB;label=32;scalar=64";
    class       volScalarField;
    location    "0.0001";
    object      T;
}
// * * * * * * * * * * * * * * * * * * * * * * * * * * * * * * * * * * * * * //

dimensions      [0 0 0 1 0 0 0];

internalField   nonuniform List<scalar> 
500
(
233615
233568
233447
233257
232998
232672
232280
231823
231300
230713
230062
229348
228571
227733
226833
225873
224853
223775
222640
221448
220200
218898
217542
216135
214676
213168
211611
210007
208357
206663
204925
203146
201326
199467
197571
195639
193673
191674
189643
187582
185493
183377
181236
179071
176884
174676
172449
170204
167943
165668
163380
161079
158769
156450
154124
151792
149456
147116
144775
142434
140093
137755
135420
133090
130766
128449
126140
123841
121552
119275
117010
114759
112522
110301
108096
105909
103739
101588
99457.1
97346.2
95256.3
93188.1
91142.2
89119.1
87119.5
85143.8
83192.6
81266.3
79365.4
77490.2
75641.1
73818.4
72022.5
70253.6
68512
66797.8
65111.4
63452.7
61822
60219.4
58644.9
57098.7
55580.7
54090.9
52629.3
51196
49790.7
48413.6
47064.3
45743
44449.2
43183.1
41944.3
40732.6
39547.9
38389.9
37258.5
36153.3
35074
34020.5
32992.4
31989.4
31011.2
30057.5
29128
28222.3
27340
26480.9
25644.6
24830.7
24038.8
23268.5
22519.6
21791.6
21084.1
20396.7
19729.1
19080.9
18451.6
17840.9
17248.3
16673.6
16116.3
15576
15052.3
14544.9
14053.3
13577.2
13116.2
12669.9
12238
11820.1
11415.8
11024.7
10646.6
10281
9927.68
9586.21
9256.28
8937.57
8629.74
8332.48
8045.49
7768.45
7501.06
7243.02
6994.06
6753.89
6522.23
6298.81
6083.37
5875.66
5675.41
5482.39
5296.36
5117.08
4944.33
4777.89
4617.54
4463.08
4314.3
4171
4033
3900.12
3772.16
3648.96
3530.35
3416.17
3306.25
3200.44
3098.6
3000.58
2906.25
2815.47
2728.11
2644.04
2563.15
2485.33
2410.45
2338.41
2269.1
2202.44
2138.31
2076.63
2017.31
1960.25
1905.39
1852.63
1801.9
1753.13
1706.25
1661.19
1617.88
1576.26
1536.26
1497.85
1460.95
1425.51
1391.48
1358.82
1327.48
1297.41
1268.56
1240.91
1214.4
1189.01
1164.69
1141.41
1119.13
1097.85
1077.69
1058.54
1040.31
1022.92
1006.33
990.516
975.429
961.029
947.262
934.056
921.306
908.858
896.473
883.77
870.138
854.573
835.404
809.809
772.993
717.051
632.607
516.368
393.688
321.59
303.067
300.398
300.054
300.007
300.001
300
300
300
300
300
300
300
300
300
300
300
300
300
300
300
300
300
300
300
300
300
300
300
300
300
300
300
300
300
300
300
300
300
300
300
300
300
300
300
300
300
300
300
300
300
300
300
300
300
300
300
300
300
300
300
300
300
300
300
300
300
300
300
300
300
300
300
300
300
300
300
300
300
300
300
300
300
300
300
300
300
300
300
300
300
300
300
300
300
300
300
300
300
300
300
300
300
300
300
300
300
300
300
300
300
300
300
300
300
300
300
300
300
300
300
300
300
300
300
300
300
300
300
300
300
300
300
300
300
300
300
300
300
300
300
300
300
300
300
300
300
300
300
300
300
300
300
300
300
300
300
300
300
300
300
300
300
300
300
300
300
300
300
300
300
300
300
300
300
300
300
300
300
300
300
300
300
300
300
300
300
300
300
300
300
300
300
300
300
300
300
300
300
300
300
300
300
300
300
300
300
300
300
300
300
300
300
300
300
300
300
300
300
300
300
300
300
300
300
300
300
300
300
300
300
300
300
300
300
300
300
300
300
300
300
300
300
300
300
300
300
)
;

boundaryField
{
    wedge0
    {
        type            wedge;
    }
    wedge1
    {
        type            wedge;
    }
    wedge2
    {
        type            wedge;
    }
    wedge3
    {
        type            wedge;
    }
    outlet
    {
        type            zeroGradient;
    }
    defaultFaces
    {
        type            empty;
    }
}


// ************************************************************************* //
