/*--------------------------------*- C++ -*----------------------------------*\
| =========                 |                                                 |
| \\      /  F ield         | OpenFOAM: The Open Source CFD Toolbox           |
|  \\    /   O peration     | Version:  2312                                  |
|   \\  /    A nd           | Website:  www.openfoam.com                      |
|    \\/     M anipulation  |                                                 |
\*---------------------------------------------------------------------------*/
FoamFile
{
    version     2.0;
    format      ascii;
    arch        "LSB;label=32;scalar=64";
    class       volScalarField;
    location    "0.0001";
    object      thermo:e;
}
// * * * * * * * * * * * * * * * * * * * * * * * * * * * * * * * * * * * * * //

dimensions      [0 2 -2 0 0 0 0];

internalField   nonuniform List<scalar> 
500
(
1.67666e+08
1.67632e+08
1.67545e+08
1.67408e+08
1.67223e+08
1.66989e+08
1.66708e+08
1.66379e+08
1.66004e+08
1.65583e+08
1.65116e+08
1.64603e+08
1.64046e+08
1.63444e+08
1.62798e+08
1.62109e+08
1.61377e+08
1.60604e+08
1.59789e+08
1.58933e+08
1.58038e+08
1.57103e+08
1.5613e+08
1.5512e+08
1.54073e+08
1.52991e+08
1.51873e+08
1.50722e+08
1.49538e+08
1.48322e+08
1.47075e+08
1.45798e+08
1.44492e+08
1.43158e+08
1.41797e+08
1.4041e+08
1.38999e+08
1.37564e+08
1.36107e+08
1.34628e+08
1.33128e+08
1.3161e+08
1.30073e+08
1.28519e+08
1.26949e+08
1.25365e+08
1.23767e+08
1.22156e+08
1.20533e+08
1.189e+08
1.17258e+08
1.15607e+08
1.13949e+08
1.12284e+08
1.10615e+08
1.08941e+08
1.07264e+08
1.05585e+08
1.03905e+08
1.02225e+08
1.00545e+08
9.88665e+07
9.71908e+07
9.55186e+07
9.38506e+07
9.21877e+07
9.05307e+07
8.88805e+07
8.72379e+07
8.56035e+07
8.39781e+07
8.23625e+07
8.07573e+07
7.91631e+07
7.75807e+07
7.60107e+07
7.44535e+07
7.29099e+07
7.13804e+07
6.98654e+07
6.83655e+07
6.68811e+07
6.54127e+07
6.39608e+07
6.25257e+07
6.11077e+07
5.97074e+07
5.83249e+07
5.69605e+07
5.56147e+07
5.42876e+07
5.29795e+07
5.16906e+07
5.0421e+07
4.91711e+07
4.79408e+07
4.67304e+07
4.554e+07
4.43697e+07
4.32195e+07
4.20895e+07
4.09797e+07
3.98902e+07
3.8821e+07
3.77721e+07
3.67434e+07
3.57348e+07
3.47464e+07
3.37781e+07
3.28297e+07
3.19012e+07
3.09925e+07
3.01034e+07
2.92338e+07
2.83835e+07
2.75525e+07
2.67404e+07
2.59472e+07
2.51726e+07
2.44165e+07
2.36786e+07
2.29588e+07
2.22567e+07
2.15723e+07
2.09051e+07
2.02551e+07
1.96219e+07
1.90054e+07
1.84051e+07
1.7821e+07
1.72526e+07
1.66998e+07
1.61623e+07
1.56398e+07
1.51321e+07
1.46387e+07
1.41596e+07
1.36943e+07
1.32427e+07
1.28044e+07
1.23791e+07
1.19666e+07
1.15667e+07
1.11789e+07
1.0803e+07
1.04388e+07
1.0086e+07
9.74434e+06
9.41349e+06
9.0932e+06
8.78321e+06
8.48326e+06
8.19309e+06
7.91245e+06
7.64106e+06
7.3787e+06
7.1251e+06
6.88002e+06
6.64323e+06
6.41449e+06
6.19356e+06
5.98022e+06
5.77425e+06
5.57541e+06
5.38351e+06
5.19832e+06
5.01964e+06
4.84727e+06
4.68101e+06
4.52066e+06
4.36604e+06
4.21696e+06
4.07324e+06
3.93471e+06
3.8012e+06
3.67253e+06
3.54854e+06
3.42909e+06
3.31401e+06
3.20315e+06
3.09637e+06
2.99353e+06
2.89449e+06
2.79911e+06
2.70728e+06
2.61886e+06
2.53373e+06
2.45178e+06
2.37289e+06
2.29696e+06
2.22387e+06
2.15352e+06
2.08582e+06
2.02066e+06
1.95796e+06
1.89763e+06
1.83958e+06
1.78372e+06
1.72998e+06
1.67828e+06
1.62854e+06
1.58069e+06
1.53467e+06
1.4904e+06
1.44782e+06
1.40687e+06
1.3675e+06
1.32963e+06
1.29322e+06
1.25822e+06
1.22458e+06
1.19223e+06
1.16115e+06
1.13128e+06
1.10258e+06
1.075e+06
1.04852e+06
1.02309e+06
998668
975227
952732
931149
910448
890600
871577
853350
835895
819187
803200
787930
773458
759717
746628
734148
722245
710893
700065
689730
679850
670372
661221
652288
643399
634282
624498
613327
599570
581200
554777
514627
454022
370597
282550
230805
217511
215595
215348
215315
215311
215310
215310
215310
215310
215310
215310
215310
215310
215310
215310
215310
215310
215310
215310
215310
215310
215310
215310
215310
215310
215310
215310
215310
215310
215310
215310
215310
215310
215310
215310
215310
215310
215310
215310
215310
215310
215310
215310
215310
215310
215310
215310
215310
215310
215310
215310
215310
215310
215310
215310
215310
215310
215310
215310
215310
215310
215310
215310
215310
215310
215310
215310
215310
215310
215310
215310
215310
215310
215310
215310
215310
215310
215310
215310
215310
215310
215310
215310
215310
215310
215310
215310
215310
215310
215310
215310
215310
215310
215310
215310
215310
215310
215310
215310
215310
215310
215310
215310
215310
215310
215310
215310
215310
215310
215310
215310
215310
215310
215310
215310
215310
215310
215310
215310
215310
215310
215310
215310
215310
215310
215310
215310
215310
215310
215310
215310
215310
215310
215310
215310
215310
215310
215310
215310
215310
215310
215310
215310
215310
215310
215310
215310
215310
215310
215310
215310
215310
215310
215310
215310
215310
215310
215310
215310
215310
215310
215310
215310
215310
215310
215310
215310
215310
215310
215310
215310
215310
215310
215310
215310
215310
215310
215310
215310
215310
215310
215310
215310
215310
215310
215310
215310
215310
215310
215310
215310
215310
215310
215310
215310
215310
215310
215310
215310
215310
215310
215310
215310
215310
215310
215310
215310
215310
215310
215310
215310
215310
215310
215310
215310
215310
215310
215310
215310
215310
215310
215310
215310
215310
215310
215310
215310
215310
215310
215310
215310
215310
215310
215310
215310
215310
215310
215310
215310
215310
215310
215310
215310
215310
215310
215310
)
;

boundaryField
{
    wedge0
    {
        type            wedge;
    }
    wedge1
    {
        type            wedge;
    }
    wedge2
    {
        type            wedge;
    }
    wedge3
    {
        type            wedge;
    }
    outlet
    {
        type            zeroGradient;
    }
    defaultFaces
    {
        type            empty;
    }
}


// ************************************************************************* //
