/*--------------------------------*- C++ -*----------------------------------*\
| =========                 |                                                 |
| \\      /  F ield         | OpenFOAM: The Open Source CFD Toolbox           |
|  \\    /   O peration     | Version:  2312                                  |
|   \\  /    A nd           | Website:  www.openfoam.com                      |
|    \\/     M anipulation  |                                                 |
\*---------------------------------------------------------------------------*/
FoamFile
{
    version     2.0;
    format      ascii;
    arch        "LSB;label=32;scalar=64";
    class       volVectorField;
    location    "0.0001";
    object      U;
}
// * * * * * * * * * * * * * * * * * * * * * * * * * * * * * * * * * * * * * //

dimensions      [0 1 -1 0 0 0 0];

internalField   nonuniform List<vector> 
500
(
(2.50521 -3.65351e-10 3.68439e-10)
(4.51062 -3.53042e-10 3.55692e-10)
(6.74751 -3.63831e-10 3.65877e-10)
(9.12341 -3.57002e-10 3.60602e-10)
(11.5548 -3.33402e-10 3.37159e-10)
(14.013 -3.31494e-10 3.35321e-10)
(16.4862 -3.25957e-10 3.28813e-10)
(18.9685 -3.17989e-10 3.19994e-10)
(21.4567 -3.0267e-10 3.03253e-10)
(23.9492 -2.82325e-10 2.81858e-10)
(26.4446 -2.6506e-10 2.62719e-10)
(28.9422 -2.47528e-10 2.45307e-10)
(31.4416 -2.30342e-10 2.29068e-10)
(33.9423 -2.13303e-10 2.12697e-10)
(36.4442 -1.96668e-10 1.9665e-10)
(38.9469 -1.81179e-10 1.8116e-10)
(41.4504 -1.65979e-10 1.65984e-10)
(43.9545 -1.57334e-10 1.57338e-10)
(46.4591 -1.5105e-10 1.51056e-10)
(48.9642 -1.47176e-10 1.47181e-10)
(51.4698 -1.4439e-10 1.44388e-10)
(53.9757 -1.42941e-10 1.42943e-10)
(56.4819 -1.41916e-10 1.41911e-10)
(58.9884 -1.41003e-10 1.41004e-10)
(61.4952 -1.38798e-10 1.38799e-10)
(64.0023 -1.35527e-10 1.3553e-10)
(66.5095 -1.33333e-10 1.33228e-10)
(69.017 -1.31216e-10 1.31222e-10)
(71.5247 -1.26422e-10 1.26422e-10)
(74.0327 -1.22341e-10 1.22343e-10)
(76.5407 -1.18652e-10 1.18644e-10)
(79.049 -1.1489e-10 1.1489e-10)
(81.5575 -1.08789e-10 1.08797e-10)
(84.0661 -1.03866e-10 1.03866e-10)
(86.5749 -9.93473e-11 9.93473e-11)
(89.0838 -9.45159e-11 9.45159e-11)
(91.5929 -9.05527e-11 9.05527e-11)
(94.1022 -8.72013e-11 8.72013e-11)
(96.6116 -8.42791e-11 8.42791e-11)
(99.1212 -8.10609e-11 8.10609e-11)
(101.631 -7.65945e-11 7.65945e-11)
(104.141 -7.10947e-11 7.10947e-11)
(106.651 -6.54973e-11 6.54973e-11)
(109.161 -6.10274e-11 6.10274e-11)
(111.671 -5.64044e-11 5.64044e-11)
(114.182 -5.19122e-11 5.19122e-11)
(116.693 -4.59573e-11 4.59573e-11)
(119.203 -4.07071e-11 4.07071e-11)
(121.715 -3.50318e-11 3.50318e-11)
(124.226 -3.01955e-11 3.01955e-11)
(126.737 -2.61427e-11 2.61427e-11)
(129.249 -2.22126e-11 2.22126e-11)
(131.76 -1.84967e-11 1.84967e-11)
(134.272 -1.43921e-11 1.43921e-11)
(136.784 -1.0794e-11 1.0794e-11)
(139.297 -7.77182e-12 7.77182e-12)
(141.809 -4.55505e-12 4.55505e-12)
(144.322 -1.84065e-12 1.84065e-12)
(146.835 4.0473e-13 -4.0473e-13)
(149.348 2.66994e-12 -2.66994e-12)
(151.861 3.75114e-12 -3.75114e-12)
(154.375 4.46494e-12 -4.46494e-12)
(156.889 4.82518e-12 -4.82518e-12)
(159.403 4.85456e-12 -4.85456e-12)
(161.917 4.67053e-12 -4.67053e-12)
(164.432 4.43665e-12 -4.43665e-12)
(166.947 4.44111e-12 -4.44111e-12)
(169.462 4.73532e-12 -4.73532e-12)
(171.977 4.20907e-12 -4.20907e-12)
(174.493 3.88226e-12 -3.88226e-12)
(177.009 3.72909e-12 -3.72909e-12)
(179.525 3.59832e-12 -3.59832e-12)
(182.041 3.44461e-12 -3.44461e-12)
(184.558 3.48604e-12 -3.48604e-12)
(187.076 3.51812e-12 -3.51815e-12)
(189.593 3.76957e-12 -3.76971e-12)
(192.111 3.41541e-12 -3.41578e-12)
(194.629 3.26514e-12 -3.26361e-12)
(197.148 3.2732e-12 -3.27166e-12)
(199.667 3.13893e-12 -3.12739e-12)
(202.186 2.66339e-12 -2.63578e-12)
(204.706 2.45249e-12 -2.41446e-12)
(207.227 2.17782e-12 -2.10523e-12)
(209.747 1.58354e-12 -1.47614e-12)
(212.269 6.8323e-13 -5.40126e-13)
(214.79 -3.1861e-13 4.11841e-13)
(217.312 -1.04583e-12 1.08846e-12)
(219.835 -1.55089e-12 1.57541e-12)
(222.358 -1.79998e-12 1.80411e-12)
(224.882 -1.91236e-12 1.91634e-12)
(227.407 -2.06063e-12 2.03486e-12)
(229.931 -1.97746e-12 1.92103e-12)
(232.457 -1.88471e-12 1.94501e-12)
(234.983 -1.81091e-12 1.86569e-12)
(237.51 -1.51911e-12 1.56897e-12)
(240.037 -1.19355e-12 1.17381e-12)
(242.566 -1.06308e-12 9.76556e-13)
(245.095 -8.23572e-13 8.22208e-13)
(247.624 -5.97848e-13 6.05592e-13)
(250.155 -3.37715e-13 3.5558e-13)
(252.686 -2.51316e-13 2.8036e-13)
(255.218 -1.70776e-13 2.13432e-13)
(257.751 -7.0494e-15 5.29024e-14)
(260.285 0 -3.46122e-14)
(262.82 9.28221e-14 -2.8591e-13)
(265.356 3.31724e-13 -5.0222e-13)
(267.892 4.34188e-13 -5.82832e-13)
(270.43 6.91171e-13 -8.17222e-13)
(272.969 8.27969e-13 -9.30509e-13)
(275.509 1.11337e-12 -1.19167e-12)
(278.051 1.55698e-12 -1.61028e-12)
(280.593 2.09741e-12 -2.13866e-12)
(283.137 2.3206e-12 -2.34815e-12)
(285.682 2.4668e-12 -2.48091e-12)
(288.229 2.74614e-12 -2.75725e-12)
(290.777 2.72882e-12 -2.73636e-12)
(293.326 2.40178e-12 -2.40535e-12)
(295.877 2.12442e-12 -2.12724e-12)
(298.43 1.93898e-12 -1.93866e-12)
(300.984 1.75411e-12 -1.75398e-12)
(303.54 1.85617e-12 -1.85626e-12)
(306.098 1.94115e-12 -1.94098e-12)
(308.658 1.77852e-12 -1.77818e-12)
(311.219 1.6484e-12 -1.64801e-12)
(313.783 1.44695e-12 -1.44679e-12)
(316.349 1.24225e-12 -1.24202e-12)
(318.917 9.42259e-13 -9.42252e-13)
(321.488 6.88358e-13 -6.88415e-13)
(324.061 4.81955e-13 -4.81873e-13)
(326.636 3.24528e-13 -3.24538e-13)
(329.214 2.18871e-13 -2.18934e-13)
(331.795 9.14434e-14 -9.13641e-14)
(334.379 1.18323e-14 -1.18415e-14)
(336.965 -1.46198e-13 1.46195e-13)
(339.555 -2.70853e-13 2.70851e-13)
(342.148 -2.34384e-13 2.34383e-13)
(344.744 -1.34219e-13 1.34219e-13)
(347.344 -1.92466e-13 1.92466e-13)
(349.948 -2.08326e-13 2.08326e-13)
(352.555 -2.08233e-13 2.08233e-13)
(355.167 -2.07366e-13 2.07366e-13)
(357.782 -2.05615e-13 2.05615e-13)
(360.402 -2.25151e-13 2.25151e-13)
(363.026 -2.02978e-13 2.02978e-13)
(365.656 -2.01258e-13 2.01258e-13)
(368.29 -1.75358e-13 1.75358e-13)
(370.929 -1.91158e-13 1.91158e-13)
(373.574 -1.71059e-13 1.71059e-13)
(376.224 -1.05224e-13 1.05224e-13)
(378.88 -1.43451e-14 1.43451e-14)
(381.542 -1.87732e-14 1.87732e-14)
(384.211 -6.45069e-14 6.45069e-14)
(386.887 -1.03283e-14 1.03283e-14)
(389.569 3.1808e-14 -3.1808e-14)
(392.259 -1.20386e-14 1.20386e-14)
(394.956 0 0)
(397.661 -1.44549e-14 1.44095e-14)
(400.374 -6.92407e-14 6.93045e-14)
(403.097 -8.15885e-14 8.17415e-14)
(405.828 -1.66527e-13 1.66766e-13)
(408.568 -2.30361e-13 2.30592e-13)
(411.319 -2.68099e-13 2.68224e-13)
(414.08 -2.89122e-13 2.8916e-13)
(416.851 -3.8804e-13 3.88039e-13)
(419.634 -3.77339e-13 3.77309e-13)
(422.428 -3.5441e-13 3.54399e-13)
(425.235 -3.27305e-13 3.27334e-13)
(428.054 -2.60255e-13 2.60319e-13)
(430.886 -2.15602e-13 2.15815e-13)
(433.733 -1.78992e-13 1.7914e-13)
(436.594 -1.76016e-13 1.76055e-13)
(439.47 -2.11591e-13 2.1142e-13)
(442.362 -2.32068e-13 2.31526e-13)
(445.27 -2.33446e-13 2.33261e-13)
(448.196 -2.50819e-13 2.50641e-13)
(451.139 -2.47778e-13 2.47671e-13)
(454.101 -2.10082e-13 2.10023e-13)
(457.083 -1.80447e-13 1.80364e-13)
(460.084 -1.74907e-13 1.7485e-13)
(463.107 -1.32438e-13 1.32386e-13)
(466.152 -9.878e-14 9.88461e-14)
(469.22 -7.85926e-14 7.87801e-14)
(472.312 -5.11729e-14 5.13427e-14)
(475.429 -2.69783e-14 2.71076e-14)
(478.572 -7.40837e-15 7.50141e-15)
(481.742 0 0)
(484.94 0 0)
(488.167 0 0)
(491.425 0 0)
(494.715 0 0)
(498.037 1.63315e-14 -1.63315e-14)
(501.394 2.34693e-14 -2.34693e-14)
(504.787 1.00443e-14 -1.00443e-14)
(508.216 7.73501e-16 -7.73501e-16)
(511.684 9.01702e-15 -9.01702e-15)
(515.192 0 0)
(518.742 -1.24794e-14 1.24794e-14)
(522.334 -1.80419e-14 1.80419e-14)
(525.971 -5.28835e-15 5.28835e-15)
(529.655 1.25482e-14 -1.25393e-14)
(533.386 3.95764e-14 -3.95528e-14)
(537.167 4.11414e-14 -4.10848e-14)
(541 3.11761e-14 -3.1125e-14)
(544.886 1.93574e-14 -1.93057e-14)
(548.827 6.42126e-15 -6.37769e-15)
(552.825 -7.36988e-15 7.41255e-15)
(556.882 -1.48141e-15 1.52215e-15)
(560.999 -7.74515e-15 7.78531e-15)
(565.18 -1.0901e-16 1.57037e-16)
(569.425 -3.46927e-15 3.51451e-15)
(573.736 -5.51582e-16 5.8946e-16)
(578.117 -2.88348e-15 2.89954e-15)
(582.568 -1.36794e-14 1.36896e-14)
(587.092 -1.97878e-14 1.98044e-14)
(591.69 -3.25247e-14 3.25488e-14)
(596.365 -5.41015e-14 5.41191e-14)
(601.119 -5.53416e-14 5.53641e-14)
(605.953 -4.96439e-14 4.96703e-14)
(610.87 -4.06573e-14 4.06647e-14)
(615.871 -3.4662e-14 3.46705e-14)
(620.958 -2.89875e-14 2.89956e-14)
(626.133 -2.36327e-14 2.36405e-14)
(631.397 -1.85279e-14 1.85329e-14)
(636.753 -1.35337e-14 1.35337e-14)
(642.2 5.87904e-15 -5.87904e-15)
(647.741 2.8741e-15 -2.8741e-15)
(653.375 -1.38399e-15 1.38399e-15)
(659.104 -1.75395e-14 1.75395e-14)
(664.927 -1.20001e-14 1.20001e-14)
(670.846 -1.07293e-14 1.07293e-14)
(676.874 -2.41653e-14 2.41653e-14)
(682.996 -1.95759e-14 1.95759e-14)
(689.204 -1.45731e-14 1.45731e-14)
(695.493 -1.38045e-14 1.38045e-14)
(701.852 -9.45592e-15 9.45592e-15)
(708.267 -5.54217e-15 5.54217e-15)
(714.712 -4.70261e-15 4.70261e-15)
(721.148 -1.40619e-15 1.40619e-15)
(727.512 -2.02141e-15 2.02141e-15)
(733.707 -2.19501e-15 2.19501e-15)
(739.574 -1.00119e-14 1.00119e-14)
(744.862 -6.89321e-15 6.89321e-15)
(749.162 -1.37307e-14 1.37307e-14)
(751.816 -3.24918e-15 3.24918e-15)
(751.754 3.49213e-15 -3.49213e-15)
(747.23 9.88278e-15 -9.88278e-15)
(735.396 3.39687e-15 -3.39687e-15)
(711.624 5.63511e-15 -5.63511e-15)
(668.545 1.31517e-14 -1.31517e-14)
(595.115 6.92695e-15 -6.92695e-15)
(479.005 5.12784e-15 -5.12784e-15)
(318.282 2.80669e-15 -2.80669e-15)
(148.054 6.47267e-16 -6.47267e-16)
(40.3868 0 5.77097e-39)
(7.04793 0 0)
(1.04488 0 0)
(0.149738 -1.70446e-15 1.70446e-15)
(0.0212507 -6.81743e-15 6.81743e-15)
(0.00299709 -1.70578e-15 1.70578e-15)
(0.000420283 0 0)
(5.86071e-05 0 0)
(8.12738e-06 0 0)
(1.1209e-06 1.59398e-15 -1.59398e-15)
(1.53744e-07 6.44293e-15 -6.44293e-15)
(2.09638e-08 1.44956e-14 -1.44956e-14)
(2.82735e-09 1.28336e-14 -1.28336e-14)
(3.55963e-10 1.43762e-14 -1.43762e-14)
(2.02342e-11 6.39481e-15 -6.39481e-15)
(-1.39742e-11 1.61821e-15 -1.61821e-15)
(1.4508e-12 0 0)
(1.18903e-11 0 0)
(1.00493e-11 0 0)
(1.5459e-11 0 0)
(1.7662e-11 0 0)
(1.49984e-11 -1.48964e-15 1.48964e-15)
(9.06026e-12 -5.95582e-15 5.95582e-15)
(1.62063e-11 -1.48984e-15 1.48984e-15)
(3.44698e-11 0 0)
(3.77904e-11 0 0)
(1.74851e-11 0 0)
(7.26161e-12 0 0)
(1.15951e-11 9.41209e-16 -9.41209e-16)
(2.04804e-12 4.71777e-15 -4.71777e-15)
(-1.04674e-11 0 0)
(-1.62923e-11 -4.65829e-15 4.65829e-15)
(-2.06227e-11 -9.34518e-16 9.34518e-16)
(-2.11574e-11 0 0)
(-8.99819e-12 0 0)
(6.13678e-12 -2.7162e-15 2.7162e-15)
(9.04358e-12 0 0)
(3.38242e-12 0 0)
(2.22192e-12 1.77854e-15 -1.77854e-15)
(4.86003e-12 -1.75771e-15 1.75771e-15)
(6.35316e-13 0 0)
(2.22001e-12 0 0)
(1.13454e-11 1.73289e-15 -1.73289e-15)
(1.44088e-11 -1.70785e-15 1.70785e-15)
(1.21325e-11 0 0)
(6.25559e-12 0 0)
(1.55739e-12 0 0)
(-3.15779e-12 -2.50431e-15 2.50431e-15)
(-1.73004e-12 -2.79662e-18 2.79662e-18)
(4.81446e-12 -2.47052e-15 2.47052e-15)
(9.82011e-12 0 0)
(5.66912e-12 2.43851e-15 -2.43851e-15)
(-1.98475e-12 0 0)
(-4.11458e-12 0 0)
(-7.50653e-12 0 0)
(-9.94796e-12 -4.75071e-15 4.75071e-15)
(-2.17875e-11 -4.73362e-15 4.73362e-15)
(-3.20835e-11 -1.60424e-17 1.60424e-17)
(-3.70506e-11 0 0)
(-3.01076e-11 0 0)
(-9.94409e-12 0 0)
(5.78927e-12 2.28558e-15 -2.28558e-15)
(1.27154e-11 0 0)
(1.19947e-11 0 0)
(3.0209e-11 -3.84066e-16 3.84066e-16)
(4.02358e-11 -5.23578e-15 5.23578e-15)
(2.47128e-11 -1.44973e-14 1.44973e-14)
(1.78091e-13 -1.92853e-14 1.92853e-14)
(-7.96207e-12 -1.96599e-14 1.96599e-14)
(6.18256e-12 -1.5671e-14 1.5671e-14)
(1.6397e-11 -1.60361e-14 1.60361e-14)
(1.43358e-11 -1.20955e-14 1.20955e-14)
(5.2398e-12 -3.89607e-15 3.89607e-15)
(-2.4787e-12 0 0)
(-1.06967e-11 0 0)
(-1.78497e-11 2.09513e-15 -2.09513e-15)
(-1.0545e-11 0 0)
(6.47079e-12 0 0)
(1.48649e-11 0 0)
(1.47818e-11 0 0)
(7.23542e-12 -4.06522e-15 4.06522e-15)
(-1.90986e-12 -4.05195e-15 4.05195e-15)
(-1.01121e-11 -1.27789e-17 1.27789e-17)
(-1.16303e-11 0 0)
(-1.73751e-11 0 0)
(-2.20538e-11 0 0)
(-2.10657e-11 0 0)
(-2.55447e-11 0 0)
(-1.4228e-11 -1.93846e-15 1.93846e-15)
(-4.31303e-12 0 0)
(-8.25067e-12 0 0)
(-1.23451e-11 1.90626e-15 -1.90626e-15)
(1.44192e-12 2.80426e-18 -2.80426e-18)
(1.7834e-11 1.88454e-15 -1.88454e-15)
(1.18339e-11 0 0)
(-1.42038e-12 -3.09652e-15 3.09652e-15)
(-5.12551e-12 -2.46339e-15 2.46339e-15)
(5.73372e-14 -5.52197e-15 5.52197e-15)
(-1.49702e-12 -4.89676e-15 4.89676e-15)
(7.03837e-12 -6.22378e-16 6.22378e-16)
(1.62203e-11 0 0)
(1.21764e-11 0 0)
(4.48471e-12 1.78883e-15 -1.78883e-15)
(-2.67248e-13 0 0)
(1.12333e-12 -4.24137e-15 4.24137e-15)
(7.3331e-13 -4.93166e-15 4.93166e-15)
(-4.79589e-12 -2.10969e-15 2.10969e-15)
(-1.44109e-11 -2.79141e-15 2.79141e-15)
(-1.7369e-11 0 0)
(-9.56093e-12 0 0)
(7.33892e-12 -1.71044e-15 1.71044e-15)
(4.95005e-12 -9.10449e-19 9.10449e-19)
(4.20113e-12 -1.69181e-15 1.69181e-15)
(6.10284e-12 0 0)
(-1.17507e-11 1.67274e-15 -1.67274e-15)
(-2.01539e-11 0 0)
(-9.78341e-12 0 0)
(-7.15897e-12 -7.97486e-16 7.97486e-16)
(-1.80396e-11 -4.87532e-15 4.87532e-15)
(-1.18208e-11 -5.66569e-15 5.66569e-15)
(-2.75959e-12 -9.69893e-15 9.69893e-15)
(2.42786e-12 -1.04785e-14 1.04785e-14)
(2.37162e-12 -8.03876e-15 8.03876e-15)
(-9.44218e-13 -2.4142e-15 2.4142e-15)
(4.23935e-14 0 0)
(-7.16682e-12 0 0)
(-1.12385e-11 1.56987e-15 -1.56987e-15)
(-1.80429e-11 2.71733e-18 -2.71733e-18)
(-2.42085e-11 1.55463e-15 -1.55463e-15)
(-2.00113e-11 0 0)
(-1.25989e-11 0 0)
(-1.48711e-12 -1.52783e-15 1.52783e-15)
(2.82409e-12 0 0)
(4.37893e-12 0 0)
(8.47631e-12 0 0)
(1.12564e-11 2.99533e-15 -2.99533e-15)
(8.75964e-12 2.9878e-15 -2.9878e-15)
(9.63853e-12 8.73602e-18 -8.73602e-18)
(1.81964e-11 0 0)
(8.64469e-12 0 0)
(-6.06502e-12 1.46016e-15 -1.46016e-15)
(-1.19365e-11 0 0)
(-9.01763e-12 0 0)
(-7.3758e-13 0 0)
(-1.22733e-12 0 0)
(-9.87474e-12 0 0)
(-1.35022e-11 0 0)
(-4.56275e-12 0 0)
(6.80361e-12 0 0)
(1.7896e-11 5.9736e-16 -5.9736e-16)
(2.66781e-11 3.97407e-15 -3.97407e-15)
(2.2079e-11 1.01028e-14 -1.01028e-14)
(1.68301e-11 1.34447e-14 -1.34447e-14)
(1.82577e-11 1.40262e-14 -1.40262e-14)
(1.56631e-11 6.41929e-15 -6.41929e-15)
(7.86286e-13 1.56298e-15 -1.56298e-15)
(-1.1255e-11 -5.67836e-16 5.67836e-16)
(-1.15996e-11 0 0)
(-1.14136e-11 0 0)
(-5.73432e-12 0 0)
(-2.42584e-12 0 0)
(5.3433e-12 0 0)
(1.19125e-11 0 0)
(1.40908e-11 0 0)
(1.18416e-11 0 0)
(9.72322e-12 -8.63283e-16 8.63283e-16)
(2.14592e-11 8.53913e-16 -8.53913e-16)
(2.44551e-11 0 0)
(2.13254e-11 0 0)
(1.59588e-11 -1.26741e-15 1.26741e-15)
(9.49442e-12 -1.79693e-18 1.79693e-18)
(3.16722e-12 -1.25523e-15 1.25523e-15)
(-5.01192e-12 -1.53986e-18 1.53986e-18)
(-5.63704e-12 -1.24255e-15 1.24255e-15)
(-6.08081e-12 0 0)
(-8.84651e-12 -8.23147e-16 8.23147e-16)
(-6.42364e-12 8.14966e-16 -8.14966e-16)
(-2.22047e-12 0 0)
(-1.64122e-11 1.21461e-15 -1.21461e-15)
(-1.69572e-11 1.21627e-18 -1.21627e-18)
(-6.04087e-12 1.20359e-15 -1.20359e-15)
(4.59626e-13 0 0)
(7.50042e-12 7.96168e-16 -7.96168e-16)
(1.01967e-11 -7.89788e-16 7.89788e-16)
(3.51254e-13 0 0)
(-7.82657e-12 -9.22231e-16 9.22231e-16)
(-5.25355e-12 -4.1856e-15 4.1856e-15)
(-9.07148e-12 -9.76836e-15 9.76836e-15)
(-1.07497e-11 -8.35126e-15 8.35126e-15)
(5.54199e-13 0 0)
(-8.70641e-12 8.27133e-15 -8.27133e-15)
(-2.04569e-11 9.62656e-15 -9.62656e-15)
(-1.06129e-11 4.1287e-15 -4.1287e-15)
(-7.06237e-12 9.26006e-16 -9.26006e-16)
(1.19681e-11 0 0)
(4.04951e-11 9.53667e-16 -9.53667e-16)
(4.23968e-11 4.1444e-15 -4.1444e-15)
(2.12901e-11 6.24716e-16 -6.24716e-16)
(2.11209e-11 -1.7224e-15 1.7224e-15)
(2.49588e-11 -6.27119e-15 6.27119e-15)
(1.38678e-11 -4.19079e-15 4.19079e-15)
(6.21903e-12 -4.31205e-15 4.31205e-15)
(-1.95755e-12 -6.61494e-15 6.61494e-15)
(-2.33075e-12 -1.1081e-14 1.1081e-14)
(-4.2215e-12 -1.76911e-14 1.76911e-14)
(-8.69959e-12 -2.6207e-14 2.6207e-14)
(-8.80144e-12 -2.82287e-14 2.82287e-14)
(-7.86994e-12 -2.77863e-14 2.77863e-14)
(-1.39345e-12 -2.50903e-14 2.50903e-14)
(-9.06898e-12 -1.60813e-14 1.60813e-14)
(-1.60481e-11 -8.88442e-15 8.88442e-15)
(-7.06301e-12 -3.8172e-15 3.8172e-15)
(-7.29688e-12 -8.61678e-16 8.61678e-16)
(-1.41506e-12 0 0)
(1.78833e-11 0 0)
(9.07883e-12 0 0)
(-8.98101e-12 0 0)
(-2.01015e-11 0 0)
(-1.26289e-11 6.73757e-16 -6.73757e-16)
(5.67728e-12 3.28871e-15 -3.28871e-15)
(-1.22535e-12 -1.68789e-16 1.68789e-16)
(-1.10553e-11 -5.62374e-15 5.62374e-15)
(-1.52593e-12 -5.04451e-15 5.04451e-15)
(1.6842e-11 -6.46129e-15 6.46129e-15)
(2.73707e-11 -1.91121e-15 1.91121e-15)
(1.90357e-11 6.41744e-16 -6.41744e-16)
(-6.81595e-12 3.70508e-15 -3.70508e-15)
(-2.91409e-11 8.70114e-16 -8.70114e-16)
(-3.24301e-11 0 0)
(-2.27834e-11 0 0)
(-2.4422e-11 -3.34463e-16 3.34463e-16)
(-2.6482e-11 -2.59671e-15 2.59671e-15)
(-8.50736e-12 -6.77123e-15 6.77123e-15)
(8.24198e-12 -5.18544e-15 5.18544e-15)
(7.7344e-12 -9.32556e-15 9.32556e-15)
(-9.2112e-12 -1.5345e-14 1.5345e-14)
(-2.32855e-11 -2.3177e-14 2.3177e-14)
(-1.41879e-11 -2.53356e-14 2.53356e-14)
(1.0979e-12 -2.35105e-14 2.35105e-14)
(1.39571e-11 -1.60926e-14 1.60926e-14)
(1.94771e-11 -1.05156e-14 1.05156e-14)
(1.74337e-11 -6.81331e-15 6.81331e-15)
(2.90367e-11 -4.97049e-15 4.97049e-15)
(2.66824e-11 -4.97218e-15 4.97218e-15)
(1.60659e-11 -6.80369e-15 6.80369e-15)
(3.41949e-12 -3.15887e-15 3.15887e-15)
(-1.25768e-11 -1.34409e-15 1.34409e-15)
)
;

boundaryField
{
    wedge0
    {
        type            wedge;
    }
    wedge1
    {
        type            wedge;
    }
    wedge2
    {
        type            wedge;
    }
    wedge3
    {
        type            wedge;
    }
    outlet
    {
        type            zeroGradient;
    }
    defaultFaces
    {
        type            empty;
    }
}


// ************************************************************************* //
