/*--------------------------------*- C++ -*----------------------------------*\
| =========                 |                                                 |
| \\      /  F ield         | OpenFOAM: The Open Source CFD Toolbox           |
|  \\    /   O peration     | Version:  2312                                  |
|   \\  /    A nd           | Website:  www.openfoam.com                      |
|    \\/     M anipulation  |                                                 |
\*---------------------------------------------------------------------------*/
FoamFile
{
    version     2.0;
    format      ascii;
    arch        "LSB;label=32;scalar=64";
    class       volScalarField;
    location    "0.036";
    object      p;
}
// * * * * * * * * * * * * * * * * * * * * * * * * * * * * * * * * * * * * * //

dimensions      [1 -1 -2 0 0 0 0];

internalField   nonuniform List<scalar> 
100
(
41789.3
41657.1
41135.9
41010.6
40412
40356.9
39719.5
39669.6
39070.1
38953.7
38446.4
38236.9
37821.1
37541.9
37183.3
36871.3
36538.4
36217.9
35894.8
35575.4
35257.5
34941.8
34628.1
34316.7
34007.7
33701
33396.9
33095.3
32796.8
32500.7
32208.9
31918.1
31635.2
31348.1
31078.8
30790.4
30544
30244.1
30036.5
29708.7
29560.7
29187.5
29116.9
28690.7
28699.6
28235.2
28300.2
27839.5
27914.5
27516.6
27546.5
27272.5
27205.3
27111.5
26895.7
27040.9
26613.7
27067.1
26353.1
27182.4
26119.4
27351.2
25940.7
27510.9
25861.9
27593.8
25918.6
27561.4
26107.9
27429.5
26377
27263.5
26647
27138.8
26859.7
27097.7
27010.3
27141.8
27144.7
27270.4
27350
27557.3
27817.1
28307.3
29039.3
30156.3
31566.8
33171.9
34684.7
35974.5
36912.9
37569
37969.9
38235.8
38382.3
38490.5
38545.6
38605.4
38634.5
38675
)
;

boundaryField
{
    sides
    {
        type            zeroGradient;
    }
    empty
    {
        type            empty;
    }
}


// ************************************************************************* //
