/*--------------------------------*- C++ -*----------------------------------*\
| =========                 |                                                 |
| \\      /  F ield         | OpenFOAM: The Open Source CFD Toolbox           |
|  \\    /   O peration     | Version:  2312                                  |
|   \\  /    A nd           | Website:  www.openfoam.com                      |
|    \\/     M anipulation  |                                                 |
\*---------------------------------------------------------------------------*/
FoamFile
{
    version     2.0;
    format      ascii;
    arch        "LSB;label=32;scalar=64";
    class       volScalarField;
    location    "0.036";
    object      T;
}
// * * * * * * * * * * * * * * * * * * * * * * * * * * * * * * * * * * * * * //

dimensions      [0 0 0 1 0 0 0];

internalField   nonuniform List<scalar> 
100
(
249.986
250.31
248.372
248.849
246.312
247.149
244.327
245.118
242.525
242.831
240.797
240.483
238.972
238.205
236.986
235.992
234.867
233.78
232.656
231.524
230.376
229.219
228.057
226.897
225.747
224.615
223.509
222.436
221.404
220.413
219.478
218.574
217.752
216.916
216.231
215.407
214.91
213.996
213.788
212.633
212.85
211.298
212.051
210.03
211.302
208.922
210.496
208.075
209.563
207.543
208.5
207.331
207.339
207.445
206.081
207.933
204.681
208.85
203.117
210.143
201.509
211.553
200.179
212.627
199.557
212.912
199.945
212.22
201.29
210.793
203.136
209.201
204.859
208
206.045
207.419
206.688
207.337
207.066
207.544
207.507
208.055
208.395
209.382
210.613
212.76
215.37
218.567
221.506
224.16
226.03
227.416
228.193
228.794
229.074
229.343
229.415
229.591
229.625
229.778
)
;

boundaryField
{
    sides
    {
        type            zeroGradient;
    }
    empty
    {
        type            empty;
    }
}


// ************************************************************************* //
