/*--------------------------------*- C++ -*----------------------------------*\
| =========                 |                                                 |
| \\      /  F ield         | OpenFOAM: The Open Source CFD Toolbox           |
|  \\    /   O peration     | Version:  2312                                  |
|   \\  /    A nd           | Website:  www.openfoam.com                      |
|    \\/     M anipulation  |                                                 |
\*---------------------------------------------------------------------------*/
FoamFile
{
    version     2.0;
    format      ascii;
    arch        "LSB;label=32;scalar=64";
    class       volScalarField;
    location    "0.036";
    object      thermo:e;
}
// * * * * * * * * * * * * * * * * * * * * * * * * * * * * * * * * * * * * * //

dimensions      [0 2 -2 0 0 0 0];

internalField   nonuniform List<scalar> 
100
(
179790
180023
178629
178972
177148
177749
175720
176289
174424
174644
173181
172955
171869
171317
170440
169726
168916
168135
167326
166512
165686
164854
164019
163184
162357
161543
160748
159976
159234
158521
157849
157199
156607
156006
155513
154921
154564
153906
153756
152926
153082
151966
152507
151054
151969
150257
151389
149648
150718
149265
149953
149113
149118
149195
148214
149546
147207
150205
146082
151135
144925
152149
143969
152921
143521
153126
143800
152629
144767
151602
146095
150457
147334
149594
148188
149176
148650
149117
148922
149266
149239
149633
149878
150588
151473
153017
154894
157193
159307
161216
162561
163558
164116
164549
164750
164944
164996
165122
165147
165256
)
;

boundaryField
{
    sides
    {
        type            zeroGradient;
    }
    empty
    {
        type            empty;
    }
}


// ************************************************************************* //
