/*--------------------------------*- C++ -*----------------------------------*\
| =========                 |                                                 |
| \\      /  F ield         | OpenFOAM: The Open Source CFD Toolbox           |
|  \\    /   O peration     | Version:  2312                                  |
|   \\  /    A nd           | Website:  www.openfoam.com                      |
|    \\/     M anipulation  |                                                 |
\*---------------------------------------------------------------------------*/
FoamFile
{
    version     2.0;
    format      ascii;
    arch        "LSB;label=32;scalar=64";
    class       volVectorField;
    location    "0.036";
    object      U;
}
// * * * * * * * * * * * * * * * * * * * * * * * * * * * * * * * * * * * * * //

dimensions      [0 1 -1 0 0 0 0];

internalField   nonuniform List<vector> 
100
(
(147.431 0 0)
(149.759 0 0)
(152.132 0 0)
(154.715 0 0)
(157.066 0 0)
(159.564 0 0)
(161.994 0 0)
(164.361 0 0)
(166.886 0 0)
(169.162 0 0)
(171.712 0 0)
(173.985 0 0)
(176.49 0 0)
(178.811 0 0)
(181.254 0 0)
(183.616 0 0)
(186.02 0 0)
(188.399 0 0)
(190.786 0 0)
(193.164 0 0)
(195.539 0 0)
(197.909 0 0)
(200.271 0 0)
(202.627 0 0)
(204.974 0 0)
(207.313 0 0)
(209.643 0 0)
(211.964 0 0)
(214.277 0 0)
(216.58 0 0)
(218.877 0 0)
(221.16 0 0)
(223.443 0 0)
(225.7 0 0)
(227.971 0 0)
(230.189 0 0)
(232.452 0 0)
(234.612 0 0)
(236.87 0 0)
(238.951 0 0)
(241.195 0 0)
(243.189 0 0)
(245.386 0 0)
(247.303 0 0)
(249.391 0 0)
(251.258 0 0)
(253.162 0 0)
(254.999 0 0)
(256.656 0 0)
(258.449 0 0)
(259.827 0 0)
(261.539 0 0)
(262.617 0 0)
(264.218 0 0)
(264.964 0 0)
(266.464 0 0)
(266.844 0 0)
(268.271 0 0)
(268.295 0 0)
(269.642 0 0)
(269.425 0 0)
(270.599 0 0)
(270.371 0 0)
(271.2 0 0)
(271.235 0 0)
(271.556 0 0)
(272.038 0 0)
(271.825 0 0)
(272.73 0 0)
(272.156 0 0)
(273.249 0 0)
(272.621 0 0)
(273.594 0 0)
(273.168 0 0)
(273.824 0 0)
(273.657 0 0)
(273.971 0 0)
(273.905 0 0)
(273.897 0 0)
(273.617 0 0)
(273.08 0 0)
(271.956 0 0)
(269.928 0 0)
(266.358 0 0)
(260.728 0 0)
(252.842 0 0)
(243.355 0 0)
(233.594 0 0)
(224.95 0 0)
(218.247 0 0)
(213.632 0 0)
(210.755 0 0)
(209.128 0 0)
(208.321 0 0)
(208.025 0 0)
(208.02 0 0)
(208.168 0 0)
(208.405 0 0)
(208.698 0 0)
(208.945 0 0)
)
;

boundaryField
{
    sides
    {
        type            mywaveTransmissive;
        gamma           1.4;
        value           nonuniform List<vector> 2((209.065 0 0) (146.772 0 0));
    }
    empty
    {
        type            empty;
    }
}


// ************************************************************************* //
