/*--------------------------------*- C++ -*----------------------------------*\
| =========                 |                                                 |
| \\      /  F ield         | OpenFOAM: The Open Source CFD Toolbox           |
|  \\    /   O peration     | Version:  2312                                  |
|   \\  /    A nd           | Website:  www.openfoam.com                      |
|    \\/     M anipulation  |                                                 |
\*---------------------------------------------------------------------------*/
FoamFile
{
    version     2.0;
    format      ascii;
    arch        "LSB;label=32;scalar=64";
    class       volScalarField;
    location    "6e-05";
    object      rho;
}
// * * * * * * * * * * * * * * * * * * * * * * * * * * * * * * * * * * * * * //

dimensions      [1 -3 0 0 0 0 0];

internalField   nonuniform List<scalar> 
500
(
0.000396132
0.000396175
0.000396255
0.000396381
0.000396565
0.000396816
0.000397147
0.00039757
0.000398095
0.000398734
0.000399501
0.000400406
0.000401463
0.000402685
0.000404084
0.000405675
0.000407473
0.000409492
0.000411749
0.00041426
0.000417044
0.000420118
0.000423505
0.000427225
0.000431302
0.000435762
0.000440631
0.000445941
0.000451724
0.000458016
0.000464856
0.000472287
0.000480359
0.000489123
0.000498639
0.000508974
0.0005202
0.0005324
0.000545668
0.000560108
0.000575839
0.000592995
0.000611731
0.000632221
0.000654666
0.000679298
0.000706406
0.000736212
0.000768576
0.000803255
0.000840087
0.000879187
0.000920698
0.000964772
0.00101158
0.0010613
0.00111414
0.00117032
0.00123005
0.0012936
0.00136122
0.0014332
0.00150984
0.00159148
0.00167847
0.00177119
0.00187003
0.00197544
0.00208789
0.00220788
0.00233594
0.00247265
0.00261864
0.00277456
0.00294113
0.00311912
0.00330934
0.00351266
0.00373003
0.00396245
0.00421099
0.00447681
0.00476114
0.00506529
0.00539066
0.00573877
0.0061112
0.00650968
0.00693602
0.00739216
0.00788018
0.00840226
0.00896075
0.00955814
0.0101971
0.0108804
0.011611
0.0123921
0.0132272
0.0141196
0.0150733
0.0160923
0.0171807
0.018343
0.019584
0.0209087
0.0223223
0.0238302
0.0254381
0.027152
0.0289782
0.030923
0.0329934
0.0351966
0.0375399
0.0400314
0.0426795
0.0454927
0.0484798
0.0516496
0.0550113
0.0585741
0.0623482
0.0663436
0.0705719
0.0750457
0.0797779
0.0847803
0.0900651
0.0956442
0.10153
0.107737
0.114285
0.121191
0.12847
0.136138
0.144208
0.152696
0.161632
0.171037
0.180932
0.191331
0.202248
0.213726
0.225798
0.238485
0.251796
0.265762
0.280458
0.29591
0.31212
0.329117
0.347021
0.36586
0.385607
0.406354
0.428234
0.451253
0.475374
0.500848
0.527719
0.55585
0.585593
0.616998
0.650008
0.685038
0.721745
0.760883
0.801765
0.845591
0.891098
0.940136
0.990854
1.04591
1.10265
1.16467
1.22823
1.29824
1.36956
1.44863
1.52884
1.61797
1.70843
1.80851
1.91097
2.02331
2.1397
2.26581
2.39815
2.54061
2.69211
2.85393
3.02633
3.21005
3.40591
3.61569
3.84518
4.11503
4.39242
4.5424
4.54083
4.09452
2.4586
1.31968
1.1711
1.16145
1.16102
1.161
1.161
1.161
1.161
1.161
1.161
1.161
1.161
1.161
1.161
1.161
1.161
1.161
1.161
1.161
1.161
1.161
1.161
1.161
1.161
1.161
1.161
1.161
1.161
1.161
1.161
1.161
1.161
1.161
1.161
1.161
1.161
1.161
1.161
1.161
1.161
1.161
1.161
1.161
1.161
1.161
1.161
1.161
1.161
1.161
1.161
1.161
1.161
1.161
1.161
1.161
1.161
1.161
1.161
1.161
1.161
1.161
1.161
1.161
1.161
1.161
1.161
1.161
1.161
1.161
1.161
1.161
1.161
1.161
1.161
1.161
1.161
1.161
1.161
1.161
1.161
1.161
1.161
1.161
1.161
1.161
1.161
1.161
1.161
1.161
1.161
1.161
1.161
1.161
1.161
1.161
1.161
1.161
1.161
1.161
1.161
1.161
1.161
1.161
1.161
1.161
1.161
1.161
1.161
1.161
1.161
1.161
1.161
1.161
1.161
1.161
1.161
1.161
1.161
1.161
1.161
1.161
1.161
1.161
1.161
1.161
1.161
1.161
1.161
1.161
1.161
1.161
1.161
1.161
1.161
1.161
1.161
1.161
1.161
1.161
1.161
1.161
1.161
1.161
1.161
1.161
1.161
1.161
1.161
1.161
1.161
1.161
1.161
1.161
1.161
1.161
1.161
1.161
1.161
1.161
1.161
1.161
1.161
1.161
1.161
1.161
1.161
1.161
1.161
1.161
1.161
1.161
1.161
1.161
1.161
1.161
1.161
1.161
1.161
1.161
1.161
1.161
1.161
1.161
1.161
1.161
1.161
1.161
1.161
1.161
1.161
1.161
1.161
1.161
1.161
1.161
1.161
1.161
1.161
1.161
1.161
1.161
1.161
1.161
1.161
1.161
1.161
1.161
1.161
1.161
1.161
1.161
1.161
1.161
1.161
1.161
1.161
1.161
1.161
1.161
1.161
1.161
1.161
1.161
1.161
1.161
1.161
1.161
1.161
1.161
1.161
1.161
1.161
1.161
1.161
1.161
1.161
1.161
1.161
1.161
1.161
1.161
1.161
1.161
1.161
1.161
1.161
1.161
1.161
1.161
1.161
1.161
1.161
1.161
1.161
1.161
1.161
1.161
1.161
1.161
1.161
1.161
1.161
1.161
1.161
1.161
1.161
1.161
1.161
1.161
1.161
1.161
1.161
1.161
1.161
1.161
1.161
1.161
1.161
1.161
1.161
1.161
1.161
1.161
1.161
1.161
1.161
1.161
1.161
1.161
1.161
1.161
1.161
1.161
1.161
1.161
1.161
1.161
)
;

boundaryField
{
    wedge0
    {
        type            wedge;
    }
    wedge1
    {
        type            wedge;
    }
    wedge2
    {
        type            wedge;
    }
    wedge3
    {
        type            wedge;
    }
    outlet
    {
        type            zeroGradient;
    }
    defaultFaces
    {
        type            empty;
    }
}


// ************************************************************************* //
