/*--------------------------------*- C++ -*----------------------------------*\
| =========                 |                                                 |
| \\      /  F ield         | OpenFOAM: The Open Source CFD Toolbox           |
|  \\    /   O peration     | Version:  2312                                  |
|   \\  /    A nd           | Website:  www.openfoam.com                      |
|    \\/     M anipulation  |                                                 |
\*---------------------------------------------------------------------------*/
FoamFile
{
    version     2.0;
    format      ascii;
    arch        "LSB;label=32;scalar=64";
    class       volScalarField;
    location    "6e-05";
    object      T;
}
// * * * * * * * * * * * * * * * * * * * * * * * * * * * * * * * * * * * * * //

dimensions      [0 0 0 1 0 0 0];

internalField   nonuniform List<scalar> 
500
(
5.75055e+06
5.75e+06
5.74889e+06
5.74709e+06
5.74445e+06
5.74082e+06
5.73604e+06
5.72995e+06
5.7224e+06
5.71323e+06
5.70228e+06
5.68939e+06
5.67442e+06
5.65722e+06
5.63764e+06
5.61553e+06
5.59077e+06
5.56321e+06
5.53273e+06
5.4992e+06
5.46251e+06
5.42254e+06
5.3792e+06
5.33237e+06
5.28198e+06
5.22794e+06
5.17017e+06
5.10863e+06
5.04325e+06
4.97399e+06
4.90082e+06
4.82372e+06
4.74269e+06
4.65772e+06
4.56885e+06
4.4761e+06
4.37953e+06
4.27918e+06
4.17516e+06
4.06754e+06
3.95644e+06
3.842e+06
3.72435e+06
3.60367e+06
3.48013e+06
3.35396e+06
3.22541e+06
3.09479e+06
2.96432e+06
2.83657e+06
2.71217e+06
2.59154e+06
2.47471e+06
2.36167e+06
2.25241e+06
2.14689e+06
2.04509e+06
1.94694e+06
1.85241e+06
1.76142e+06
1.67394e+06
1.58988e+06
1.50918e+06
1.43177e+06
1.35758e+06
1.28653e+06
1.21854e+06
1.15353e+06
1.09141e+06
1.03211e+06
975539
921613
870245
821351
774845
730643
688659
648811
611015
575190
541256
509134
478746
450017
422872
397241
373051
350236
328728
308465
289382
271422
254526
238637
223704
209674
196499
184131
172525
161639
151431
141862
132894
124494
116626
109259
102363
95909.2
89870.2
84220.5
78935.9
73993.8
69372.5
65052
61013.1
57238
53709.9
50412.8
47331.7
44452.2
41761.1
39245.8
36894.7
34696.8
32642.1
30721.1
28925
27245.2
25673.6
24202.7
22825.7
21536.3
20328.9
19198.1
18138.6
17145.4
16213.7
15339.5
14519.5
13750.1
13027.9
12349.1
11710.9
11111.2
10547.5
10017.3
9517.83
9047.1
8604.22
8187.03
7793.18
7421.04
7070.47
6739.68
6426.47
6130.13
5850.72
5586.3
5335.06
5098.01
4873.81
4660.15
4458.54
4267.82
4085.43
3914.84
3749.78
3597.36
3447.54
3311.36
3175.46
3053.49
2930.73
2821.25
2710.1
2611.89
2511.17
2423.09
2331.8
2252.7
2169.99
2098.7
2023.95
1959.41
1892.38
1833.85
1774.05
1720.76
1668.37
1620.27
1574.29
1531.13
1490.39
1452.09
1416.25
1383.2
1353.86
1329.25
1305.57
1274.73
1224.47
1114.62
818.175
364.712
302.045
300.061
300.002
300
300
300
300
300
300
300
300
300
300
300
300
300
300
300
300
300
300
300
300
300
300
300
300
300
300
300
300
300
300
300
300
300
300
300
300
300
300
300
300
300
300
300
300
300
300
300
300
300
300
300
300
300
300
300
300
300
300
300
300
300
300
300
300
300
300
300
300
300
300
300
300
300
300
300
300
300
300
300
300
300
300
300
300
300
300
300
300
300
300
300
300
300
300
300
300
300
300
300
300
300
300
300
300
300
300
300
300
300
300
300
300
300
300
300
300
300
300
300
300
300
300
300
300
300
300
300
300
300
300
300
300
300
300
300
300
300
300
300
300
300
300
300
300
300
300
300
300
300
300
300
300
300
300
300
300
300
300
300
300
300
300
300
300
300
300
300
300
300
300
300
300
300
300
300
300
300
300
300
300
300
300
300
300
300
300
300
300
300
300
300
300
300
300
300
300
300
300
300
300
300
300
300
300
300
300
300
300
300
300
300
300
300
300
300
300
300
300
300
300
300
300
300
300
300
300
300
300
300
300
300
300
300
300
300
300
300
300
300
300
300
300
300
300
300
300
300
300
300
300
300
300
300
300
300
300
300
300
300
300
300
300
300
300
300
300
300
300
300
300
300
300
300
300
300
300
300
300
300
300
300
300
300
300
300
300
300
300
300
300
300
300
300
)
;

boundaryField
{
    wedge0
    {
        type            wedge;
    }
    wedge1
    {
        type            wedge;
    }
    wedge2
    {
        type            wedge;
    }
    wedge3
    {
        type            wedge;
    }
    outlet
    {
        type            zeroGradient;
    }
    defaultFaces
    {
        type            empty;
    }
}


// ************************************************************************* //
