/*--------------------------------*- C++ -*----------------------------------*\
| =========                 |                                                 |
| \\      /  F ield         | OpenFOAM: The Open Source CFD Toolbox           |
|  \\    /   O peration     | Version:  2312                                  |
|   \\  /    A nd           | Website:  www.openfoam.com                      |
|    \\/     M anipulation  |                                                 |
\*---------------------------------------------------------------------------*/
FoamFile
{
    version     2.0;
    format      ascii;
    arch        "LSB;label=32;scalar=64";
    class       volScalarField;
    location    "6e-05";
    object      thermo:e;
}
// * * * * * * * * * * * * * * * * * * * * * * * * * * * * * * * * * * * * * //

dimensions      [0 2 -2 0 0 0 0];

internalField   nonuniform List<scalar> 
500
(
4.12717e+09
4.12678e+09
4.12598e+09
4.12468e+09
4.12279e+09
4.12019e+09
4.11676e+09
4.11239e+09
4.10697e+09
4.10039e+09
4.09252e+09
4.08328e+09
4.07253e+09
4.06019e+09
4.04613e+09
4.03027e+09
4.01249e+09
3.99272e+09
3.97084e+09
3.94678e+09
3.92044e+09
3.89176e+09
3.86065e+09
3.82704e+09
3.79088e+09
3.75209e+09
3.71063e+09
3.66646e+09
3.61954e+09
3.56983e+09
3.51732e+09
3.46198e+09
3.40383e+09
3.34285e+09
3.27906e+09
3.2125e+09
3.14319e+09
3.07117e+09
2.99651e+09
2.91927e+09
2.83954e+09
2.7574e+09
2.67297e+09
2.58635e+09
2.49769e+09
2.40714e+09
2.31488e+09
2.22113e+09
2.12749e+09
2.03581e+09
1.94652e+09
1.85995e+09
1.7761e+09
1.69497e+09
1.61655e+09
1.54083e+09
1.46776e+09
1.39732e+09
1.32947e+09
1.26417e+09
1.20138e+09
1.14106e+09
1.08314e+09
1.02758e+09
9.74337e+08
9.23343e+08
8.74545e+08
8.27886e+08
7.83306e+08
7.40746e+08
7.00145e+08
6.61441e+08
6.24575e+08
5.89483e+08
5.56106e+08
5.24382e+08
4.94251e+08
4.65652e+08
4.38526e+08
4.12814e+08
3.8846e+08
3.65405e+08
3.43596e+08
3.22977e+08
3.03496e+08
2.851e+08
2.67739e+08
2.51364e+08
2.35928e+08
2.21385e+08
2.0769e+08
1.948e+08
1.82673e+08
1.7127e+08
1.60552e+08
1.50483e+08
1.41027e+08
1.32151e+08
1.23821e+08
1.16008e+08
1.08682e+08
1.01814e+08
9.53782e+07
8.93491e+07
8.37024e+07
7.84153e+07
7.3466e+07
6.8834e+07
6.44998e+07
6.0445e+07
5.66523e+07
5.31053e+07
4.97887e+07
4.66878e+07
4.37891e+07
4.10797e+07
3.85476e+07
3.61813e+07
3.39699e+07
3.19034e+07
2.99719e+07
2.81667e+07
2.64794e+07
2.49019e+07
2.34272e+07
2.20485e+07
2.07595e+07
1.95538e+07
1.84259e+07
1.73703e+07
1.6382e+07
1.54566e+07
1.459e+07
1.37785e+07
1.30181e+07
1.23052e+07
1.16366e+07
1.10092e+07
1.04206e+07
9.86848e+06
9.35009e+06
8.86298e+06
8.40491e+06
7.97448e+06
7.56996e+06
7.18945e+06
6.83095e+06
6.49311e+06
6.17525e+06
5.87583e+06
5.59317e+06
5.32608e+06
5.07448e+06
4.83707e+06
4.61228e+06
4.39959e+06
4.19906e+06
4.00929e+06
3.82898e+06
3.65884e+06
3.49793e+06
3.34459e+06
3.19989e+06
3.06301e+06
2.93211e+06
2.80968e+06
2.69122e+06
2.58183e+06
2.4743e+06
2.37656e+06
2.27903e+06
2.19149e+06
2.10339e+06
2.02481e+06
1.94504e+06
1.87455e+06
1.80227e+06
1.73905e+06
1.67353e+06
1.61676e+06
1.5574e+06
1.50623e+06
1.45259e+06
1.40627e+06
1.35816e+06
1.31615e+06
1.27323e+06
1.23499e+06
1.19739e+06
1.16287e+06
1.12987e+06
1.09889e+06
1.06965e+06
1.04216e+06
1.01644e+06
992726
971668
954000
937009
914876
878804
799964
587204
261754
216778
215354
215311
215310
215310
215310
215310
215310
215310
215310
215310
215310
215310
215310
215310
215310
215310
215310
215310
215310
215310
215310
215310
215310
215310
215310
215310
215310
215310
215310
215310
215310
215310
215310
215310
215310
215310
215310
215310
215310
215310
215310
215310
215310
215310
215310
215310
215310
215310
215310
215310
215310
215310
215310
215310
215310
215310
215310
215310
215310
215310
215310
215310
215310
215310
215310
215310
215310
215310
215310
215310
215310
215310
215310
215310
215310
215310
215310
215310
215310
215310
215310
215310
215310
215310
215310
215310
215310
215310
215310
215310
215310
215310
215310
215310
215310
215310
215310
215310
215310
215310
215310
215310
215310
215310
215310
215310
215310
215310
215310
215310
215310
215310
215310
215310
215310
215310
215310
215310
215310
215310
215310
215310
215310
215310
215310
215310
215310
215310
215310
215310
215310
215310
215310
215310
215310
215310
215310
215310
215310
215310
215310
215310
215310
215310
215310
215310
215310
215310
215310
215310
215310
215310
215310
215310
215310
215310
215310
215310
215310
215310
215310
215310
215310
215310
215310
215310
215310
215310
215310
215310
215310
215310
215310
215310
215310
215310
215310
215310
215310
215310
215310
215310
215310
215310
215310
215310
215310
215310
215310
215310
215310
215310
215310
215310
215310
215310
215310
215310
215310
215310
215310
215310
215310
215310
215310
215310
215310
215310
215310
215310
215310
215310
215310
215310
215310
215310
215310
215310
215310
215310
215310
215310
215310
215310
215310
215310
215310
215310
215310
215310
215310
215310
215310
215310
215310
215310
215310
215310
215310
215310
215310
215310
215310
215310
215310
215310
215310
215310
215310
215310
215310
215310
215310
215310
215310
215310
215310
215310
215310
215310
215310
215310
215310
215310
215310
215310
215310
215310
215310
215310
215310
215310
215310
215310
215310
215310
215310
215310
215310
215310
215310
215310
215310
215310
215310
215310
215310
215310
215310
215310
215310
215310
215310
215310
215310
)
;

boundaryField
{
    wedge0
    {
        type            wedge;
    }
    wedge1
    {
        type            wedge;
    }
    wedge2
    {
        type            wedge;
    }
    wedge3
    {
        type            wedge;
    }
    outlet
    {
        type            zeroGradient;
    }
    defaultFaces
    {
        type            empty;
    }
}


// ************************************************************************* //
