/*--------------------------------*- C++ -*----------------------------------*\
| =========                 |                                                 |
| \\      /  F ield         | OpenFOAM: The Open Source CFD Toolbox           |
|  \\    /   O peration     | Version:  2312                                  |
|   \\  /    A nd           | Website:  www.openfoam.com                      |
|    \\/     M anipulation  |                                                 |
\*---------------------------------------------------------------------------*/
FoamFile
{
    version     2.0;
    format      ascii;
    arch        "LSB;label=32;scalar=64";
    class       volVectorField;
    location    "6e-05";
    object      U;
}
// * * * * * * * * * * * * * * * * * * * * * * * * * * * * * * * * * * * * * //

dimensions      [0 1 -1 0 0 0 0];

internalField   nonuniform List<vector> 
500
(
(3.74968 -1.56755e-08 1.65088e-08)
(7.62475 -1.54643e-08 1.62635e-08)
(11.9538 -1.59674e-08 1.67552e-08)
(16.3922 -1.65518e-08 1.73354e-08)
(20.8716 -1.59233e-08 1.66849e-08)
(25.3724 -1.63776e-08 1.71105e-08)
(29.8875 -1.6444e-08 1.71968e-08)
(34.4129 -1.67084e-08 1.73847e-08)
(38.9464 -1.60849e-08 1.66996e-08)
(43.4866 -1.48074e-08 1.5365e-08)
(48.0329 -1.35266e-08 1.4039e-08)
(52.5845 -1.2311e-08 1.27829e-08)
(57.1416 -1.08807e-08 1.13381e-08)
(61.704 -9.25e-09 9.6966e-09)
(66.2726 -7.42144e-09 7.86605e-09)
(70.8494 -5.48717e-09 5.92862e-09)
(75.4353 -3.43081e-09 3.81144e-09)
(80.0311 -2.25206e-09 2.58714e-09)
(84.6384 -1.06338e-09 1.37905e-09)
(89.2586 -6.06553e-10 9.08202e-10)
(93.893 -3.73312e-10 6.64483e-10)
(98.5423 -3.52193e-10 6.44027e-10)
(103.209 -5.52062e-10 8.53931e-10)
(107.895 -1.0755e-09 1.33831e-09)
(112.601 -1.31038e-09 1.53601e-09)
(117.331 -1.24346e-09 1.43988e-09)
(122.086 -1.39907e-09 1.57355e-09)
(126.868 -1.85403e-09 2.02164e-09)
(131.681 -1.52702e-09 1.69351e-09)
(136.526 -1.41176e-09 1.5557e-09)
(141.408 -1.48733e-09 1.6214e-09)
(146.328 -1.82076e-09 1.94031e-09)
(151.291 -1.5719e-09 1.67545e-09)
(156.301 -1.3496e-09 1.42721e-09)
(161.362 -1.08107e-09 1.1257e-09)
(166.479 -9.793e-10 9.79302e-10)
(171.655 -8.79624e-10 8.79595e-10)
(176.897 -8.88667e-10 8.88667e-10)
(182.209 -9.73889e-10 9.73889e-10)
(187.598 -1.29001e-09 1.29001e-09)
(193.069 -1.3483e-09 1.3483e-09)
(198.628 -1.14755e-09 1.14755e-09)
(204.282 -1.05014e-09 1.05014e-09)
(210.036 -9.8129e-10 9.8129e-10)
(215.932 -9.49322e-10 9.49322e-10)
(221.766 -9.25454e-10 9.25454e-10)
(227.598 -9.01038e-10 9.01038e-10)
(231.194 -8.87023e-10 8.87023e-10)
(230.658 -8.77572e-10 8.77572e-10)
(230.921 -8.67552e-10 8.67552e-10)
(233.973 -8.53256e-10 8.53256e-10)
(237.862 -8.05808e-10 8.05808e-10)
(241.907 -7.13425e-10 7.13425e-10)
(246.072 -5.57846e-10 5.57846e-10)
(250.255 -4.28798e-10 4.28798e-10)
(254.466 -2.90185e-10 2.90185e-10)
(258.679 -1.79947e-10 1.79947e-10)
(262.895 -8.87626e-11 8.87626e-11)
(267.113 -1.2336e-10 1.2336e-10)
(271.331 1.18678e-10 -1.18678e-10)
(275.553 4.76657e-11 -4.76657e-11)
(279.775 1.63232e-12 -1.63232e-12)
(284.003 1.64404e-12 -1.64404e-12)
(288.232 1.58984e-12 -1.58984e-12)
(292.47 0 2.52638e-31)
(296.711 2.09098e-11 -2.09098e-11)
(300.967 -1.12231e-11 1.12231e-11)
(305.225 1.21599e-10 -1.21599e-10)
(309.503 8.63554e-11 -8.63554e-11)
(313.788 5.58028e-11 -5.58028e-11)
(318.092 1.96054e-11 -1.96054e-11)
(322.41 1.09158e-11 -1.09158e-11)
(326.741 1.32689e-12 -1.32689e-12)
(331.096 1.09353e-11 -1.09353e-11)
(335.459 -1.89463e-11 1.89463e-11)
(339.847 4.45911e-11 -4.45911e-11)
(344.244 2.56189e-11 -2.56189e-11)
(348.658 1.41345e-11 -1.41345e-11)
(353.088 7.96075e-12 -7.96075e-12)
(357.522 1.20234e-12 -1.20118e-12)
(361.976 7.30625e-12 -7.30816e-12)
(366.425 -1.18575e-11 1.18445e-11)
(370.887 3.0649e-11 -3.06154e-11)
(375.341 2.0947e-11 -2.09556e-11)
(379.793 2.82625e-11 -2.82333e-11)
(384.238 -1.21846e-11 1.2997e-11)
(388.667 6.1824e-12 -6.09438e-12)
(393.089 -1.005e-11 7.46662e-12)
(397.49 -1.01444e-11 1.01441e-11)
(401.885 -9.00895e-13 9.00803e-13)
(406.261 -1.13074e-11 1.9695e-11)
(410.63 -9.81258e-12 8.06364e-12)
(414.987 -6.79595e-13 6.24801e-12)
(419.338 -1.57156e-11 1.37374e-11)
(423.683 -6.61378e-12 1.37287e-11)
(428.032 -5.20793e-12 5.17001e-12)
(432.39 -8.40135e-12 8.39521e-12)
(436.766 -4.62568e-12 5.4716e-13)
(441.173 -7.60695e-12 7.60693e-12)
(445.612 1.86986e-12 -1.87088e-12)
(450.095 -4.38945e-12 4.3896e-12)
(454.605 4.49656e-12 -4.49657e-12)
(459.157 -4.6199e-12 4.61998e-12)
(463.711 4.42211e-12 -4.40887e-12)
(468.269 -5.2019e-12 5.18857e-12)
(472.8 5.81715e-12 -5.96551e-12)
(477.298 -2.60635e-12 2.92152e-12)
(481.77 2.82618e-12 -3.6123e-12)
(486.211 -1.40274e-13 6.18171e-13)
(490.634 3.02673e-12 -3.02684e-12)
(495.047 -4.91186e-13 4.91165e-13)
(499.469 4.93889e-12 -4.97507e-12)
(503.921 2.95221e-12 -3.11977e-12)
(508.421 2.92916e-12 -2.92915e-12)
(512.972 2.92705e-12 -3.2559e-12)
(517.572 6.28537e-12 -6.44547e-12)
(522.178 5.99842e-12 -5.81506e-12)
(526.755 4.46984e-12 -4.52474e-12)
(531.301 3.8228e-12 -3.84518e-12)
(535.813 2.85384e-12 -2.80042e-12)
(540.3 1.57949e-12 -1.54654e-12)
(544.801 3.35222e-12 -3.36646e-12)
(549.332 2.93864e-12 -2.65376e-12)
(553.938 2.11632e-12 -2.27438e-12)
(558.597 1.84887e-12 -1.59952e-12)
(563.259 1.52603e-12 -1.55293e-12)
(567.872 2.18073e-12 -1.86311e-12)
(572.466 1.49079e-12 -1.88049e-12)
(577.04 1.26312e-12 -8.79737e-13)
(581.642 3.92691e-13 -2.97868e-13)
(586.309 2.42461e-13 -1.82816e-13)
(591.054 -1.32678e-14 1.32841e-14)
(595.793 -1.82186e-15 -2.3714e-13)
(600.458 -3.19115e-14 -1.04307e-13)
(605.115 2.2659e-13 -4.4037e-14)
(609.79 -1.01496e-12 6.60553e-13)
(614.562 -2.51769e-13 1.15514e-13)
(619.432 1.0047e-13 -4.89643e-14)
(624.268 8.51263e-14 -4.3175e-14)
(629.001 2.31841e-13 -2.3184e-13)
(633.748 5.79387e-14 6.11939e-14)
(638.594 3.24149e-13 -4.01118e-13)
(643.605 -7.71997e-14 1.84117e-14)
(648.592 -1.83769e-14 -1.90506e-13)
(653.431 -9.15635e-14 -6.03286e-14)
(658.297 1.15294e-13 -1.58372e-13)
(663.346 1.70068e-14 -2.17595e-14)
(668.561 2.28326e-13 -1.68578e-13)
(673.595 -1.08607e-13 1.34409e-13)
(678.565 4.62028e-14 6.11434e-15)
(683.716 7.67789e-14 -7.91188e-16)
(689.128 -5.72767e-14 7.67374e-14)
(694.335 -1.71225e-13 1.86252e-13)
(699.455 -1.09142e-13 1.12521e-13)
(704.861 -5.00496e-14 5.0141e-14)
(710.477 -2.50003e-13 2.49157e-13)
(715.737 1.42775e-13 -1.41828e-13)
(721.16 -3.00779e-13 2.99864e-13)
(727.007 6.08415e-15 -6.2121e-15)
(732.578 -1.49772e-13 1.49493e-13)
(738.108 -1.26187e-13 1.24971e-13)
(744.146 -2.62135e-13 2.61727e-13)
(749.918 1.84035e-15 -1.21042e-15)
(755.722 -1.76911e-13 1.75722e-13)
(762.194 -1.41277e-13 1.4128e-13)
(767.896 -1.40023e-13 1.40112e-13)
(774.774 -1.43434e-13 1.43436e-13)
(780.465 -9.6906e-14 9.69466e-14)
(787.873 -7.72622e-14 7.72372e-14)
(793.467 -1.30655e-13 1.3072e-13)
(801.352 -7.55527e-14 7.5634e-14)
(806.907 -1.03964e-13 1.04153e-13)
(815.235 -1.45358e-13 1.46877e-13)
(820.838 -9.55703e-14 9.75393e-14)
(829.674 -1.07833e-13 1.09152e-13)
(835.313 -1.00989e-13 1.03017e-13)
(844.705 -1.31058e-13 1.31205e-13)
(850.39 -8.54772e-14 8.56386e-14)
(860.298 -1.04799e-13 1.04889e-13)
(866.088 -8.47e-14 8.48718e-14)
(876.339 -6.36333e-14 6.36125e-14)
(882.376 -4.49731e-14 4.49665e-14)
(892.653 -3.76314e-14 3.76039e-14)
(899.199 -3.16965e-14 3.17654e-14)
(909.256 -3.43261e-14 3.42613e-14)
(916.579 -2.68482e-14 2.6796e-14)
(926.369 -1.92411e-14 1.92411e-14)
(934.501 -8.67845e-15 8.67845e-15)
(944.061 0 0)
(953.269 -5.17294e-15 5.17294e-15)
(962.996 8.77517e-15 -8.77517e-15)
(972.852 1.09072e-14 -1.09072e-14)
(982.939 1.81897e-14 -1.81897e-14)
(993.214 -4.86967e-16 4.86967e-16)
(1003.73 4.70971e-15 -4.70971e-15)
(1014.76 9.9674e-15 -9.9674e-15)
(1027.3 7.22221e-17 -7.22221e-17)
(1044.51 -3.46317e-15 3.4637e-15)
(1059.37 -1.75971e-15 1.76184e-15)
(1057.68 2.16414e-15 -2.15808e-15)
(1031.14 9.28354e-15 -9.26482e-15)
(920.616 9.95302e-15 -9.92784e-15)
(546.081 4.43433e-15 -4.42853e-15)
(82.4658 -4.99412e-15 4.99412e-15)
(3.98656 -1.73169e-14 1.73169e-14)
(0.151383 -1.71839e-14 1.71839e-14)
(0.00570496 -6.0745e-15 6.0745e-15)
(0.000214362 -7.54083e-15 7.54083e-15)
(8.02059e-06 1.43889e-15 -1.43889e-15)
(2.98787e-07 0 0)
(1.1074e-08 0 0)
(4.46382e-10 -6.60455e-15 6.60455e-15)
(-3.69042e-11 -3.71426e-14 3.71426e-14)
(-8.63571e-11 -3.7467e-14 3.7467e-14)
(-4.28534e-11 -4.13526e-14 4.13526e-14)
(2.66756e-11 -3.68974e-14 3.68974e-14)
(1.73486e-11 -2.33236e-14 2.33236e-14)
(4.90128e-11 -7.95302e-15 7.95302e-15)
(9.69167e-11 0 0)
(1.25927e-10 0 0)
(7.73524e-11 0 0)
(1.15396e-11 0 0)
(4.87613e-12 3.87149e-16 -3.87149e-16)
(-4.46469e-11 5.27043e-15 -5.27043e-15)
(-7.60837e-11 1.97412e-14 -1.97412e-14)
(-9.41686e-11 1.88957e-15 -1.88957e-15)
(-4.67499e-11 -5.76066e-15 5.76066e-15)
(5.49662e-12 -2.4966e-14 2.4966e-14)
(2.11973e-11 -2.14545e-14 2.14545e-14)
(3.40715e-12 -2.22833e-14 2.22833e-14)
(-2.42577e-11 -2.73777e-14 2.73777e-14)
(-2.15925e-11 -2.21049e-14 2.21049e-14)
(1.49534e-11 -4.60752e-15 4.60752e-15)
(-2.06424e-12 0 0)
(-3.13574e-11 0 0)
(-3.04057e-11 0 0)
(-5.59819e-12 0 0)
(2.33796e-11 0 0)
(9.69695e-12 -2.17667e-16 2.17667e-16)
(-2.49303e-12 -8.48471e-15 8.48471e-15)
(2.76296e-11 -2.11988e-14 2.11988e-14)
(3.75189e-11 -1.6927e-14 1.6927e-14)
(2.29737e-11 -2.09914e-14 2.09914e-14)
(-2.09026e-11 3.43525e-14 -3.43525e-14)
(3.39475e-12 3.15213e-14 -3.15213e-14)
(2.13351e-11 2.53053e-14 -2.53053e-14)
(1.78656e-11 1.14048e-14 -1.14048e-14)
(-2.0851e-11 6.04939e-15 -6.04939e-15)
(-2.61833e-11 7.29846e-15 -7.29846e-15)
(-5.93206e-12 -2.6894e-15 2.6894e-15)
(5.73732e-12 -8.02135e-16 8.02135e-16)
(9.97102e-12 0 0)
(2.16602e-11 0 0)
(1.72822e-11 0 0)
(-3.26805e-11 0 0)
(-4.54684e-11 0 0)
(-2.59809e-11 -3.24689e-15 3.24689e-15)
(-7.60307e-13 -1.45135e-14 1.45135e-14)
(-1.68593e-12 -5.32134e-15 5.32134e-15)
(-1.17663e-11 -1.29851e-15 1.29851e-15)
(-1.66226e-11 0 0)
(-6.18709e-12 0 0)
(1.35555e-11 3.91409e-15 -3.91409e-15)
(2.77089e-11 9.67726e-15 -9.67726e-15)
(2.81763e-11 2.36475e-14 -2.36475e-14)
(-6.91035e-13 2.28697e-14 -2.28697e-14)
(-2.49563e-12 2.43214e-14 -2.43214e-14)
(1.81907e-12 1.7938e-14 -1.7938e-14)
(-6.09356e-12 1.10869e-14 -1.10869e-14)
(5.474e-12 3.72413e-15 -3.72413e-15)
(-1.7483e-12 4.1513e-16 -4.1513e-16)
(5.24355e-12 0 0)
(1.37221e-11 0 0)
(-2.46116e-11 -1.26763e-15 1.26763e-15)
(-2.92469e-11 -4.85619e-15 4.85619e-15)
(-2.36899e-11 -1.13805e-14 1.13805e-14)
(1.12889e-11 -2.80762e-15 2.80762e-15)
(2.31315e-11 0 0)
(1.86494e-11 0 0)
(1.43173e-11 2.11198e-16 -2.11198e-16)
(7.4868e-12 4.1653e-15 -4.1653e-15)
(2.96455e-12 1.08793e-14 -1.08793e-14)
(-9.23832e-12 1.92293e-14 -1.92293e-14)
(1.06411e-11 5.51269e-15 -5.51269e-15)
(-1.96266e-11 -1.2558e-14 1.2558e-14)
(-2.56209e-11 -8.36857e-15 8.36857e-15)
(5.5103e-12 -5.64569e-15 5.64569e-15)
(1.65831e-11 -5.68557e-15 5.68557e-15)
(-3.47629e-12 -6.83493e-15 6.83493e-15)
(-2.56005e-11 -2.56393e-15 2.56393e-15)
(-1.66343e-11 0 0)
(-1.12371e-11 1.30547e-14 -1.30547e-14)
(-7.83132e-12 -9.88644e-15 9.88644e-15)
(-2.80517e-12 -1.05313e-15 1.05313e-15)
(3.45667e-12 1.22327e-15 -1.22327e-15)
(1.95089e-11 3.78769e-15 -3.78769e-15)
(2.46646e-11 -3.03546e-15 3.03546e-15)
(1.84033e-11 -2.23913e-16 2.23913e-16)
(1.14785e-11 0 0)
(2.12709e-11 -1.03035e-16 1.03035e-16)
(-2.23594e-11 -1.08304e-14 1.08304e-14)
(-2.58387e-11 -4.94426e-15 4.94426e-15)
(-1.11111e-11 -6.70884e-15 6.70884e-15)
(2.56363e-12 0 0)
(1.8406e-11 3.8585e-15 -3.8585e-15)
(2.22694e-11 0 0)
(1.11986e-11 0 0)
(-7.58332e-12 -3.98361e-15 3.98361e-15)
(-1.63192e-11 -9.89551e-15 9.89551e-15)
(-1.45789e-11 -1.10341e-14 1.10341e-14)
(4.38474e-11 -3.88066e-15 3.88066e-15)
(8.62885e-11 0 0)
(5.73339e-11 0 0)
(1.21901e-11 0 0)
(-4.79723e-11 5.31516e-15 -5.31516e-15)
(-6.8834e-11 1.88186e-15 -1.88186e-15)
(-4.4695e-11 0 0)
(-2.21294e-11 -8.30412e-15 8.30412e-15)
(9.62628e-12 -1.94494e-14 1.94494e-14)
(2.18253e-11 -2.94348e-14 2.94348e-14)
(3.91392e-12 -3.4944e-14 3.4944e-14)
(-1.77667e-11 -3.66946e-14 3.66946e-14)
(-2.28664e-12 -3.46993e-14 3.46993e-14)
(3.16802e-11 -3.76372e-14 3.76372e-14)
(3.74699e-11 -3.21054e-14 3.21054e-14)
(-3.716e-11 -1.18913e-14 1.18913e-14)
(-4.59486e-11 -4.75969e-15 4.75969e-15)
(-2.77635e-11 0 0)
(4.97484e-12 2.78876e-15 -2.78876e-15)
(2.21419e-11 0 0)
(1.94865e-11 0 0)
(-1.82525e-11 0 0)
(-2.82702e-11 -1.7122e-15 1.7122e-15)
(-1.55e-11 -7.36775e-15 7.36775e-15)
(-8.3354e-12 -8.60891e-15 8.60891e-15)
(-3.22972e-12 -1.36447e-15 1.36447e-15)
(1.07596e-11 0 0)
(2.27791e-11 0 0)
(2.9439e-11 0 0)
(1.6509e-11 0 0)
(-1.22811e-11 -9.92158e-18 9.92158e-18)
(-8.4852e-13 -3.54872e-15 3.54872e-15)
(-1.34043e-11 0 0)
(-2.11814e-11 5.6143e-16 -5.6143e-16)
(1.25711e-13 3.67804e-15 -3.67804e-15)
(2.62129e-11 2.27762e-15 -2.27762e-15)
(3.9737e-11 3.06011e-15 -3.06011e-15)
(2.94433e-11 -2.87771e-15 2.87771e-15)
(-1.51311e-11 -1.4074e-14 1.4074e-14)
(-1.64765e-11 -1.42399e-14 1.42399e-14)
(-4.97992e-12 -1.58151e-14 1.58151e-14)
(-1.73814e-11 -1.37119e-14 1.37119e-14)
(-1.63926e-11 -2.22055e-15 2.22055e-15)
(1.4067e-12 0 0)
(1.18161e-11 8.95263e-16 -8.95263e-16)
(2.9501e-12 3.79463e-15 -3.79463e-15)
(-3.23026e-11 -4.01898e-15 4.01898e-15)
(-3.63032e-11 -1.43755e-14 1.43755e-14)
(-2.49153e-11 -1.72991e-14 1.72991e-14)
(-1.73809e-12 -1.35773e-14 1.35773e-14)
(1.29118e-11 -1.52471e-14 1.52471e-14)
(1.31493e-11 -1.78354e-15 1.78354e-15)
(2.9047e-11 0 0)
(2.52951e-11 -2.76686e-15 2.76686e-15)
(4.13617e-12 -3.29663e-16 3.29663e-16)
(1.41038e-11 -3.06804e-15 3.06804e-15)
(2.15309e-11 0 0)
(1.02178e-11 2.23436e-15 -2.23436e-15)
(-2.25507e-11 0 0)
(-3.49492e-11 0 0)
(-2.33239e-11 -2.13769e-15 2.13769e-15)
(-6.64544e-12 -1.14739e-14 1.14739e-14)
(7.11783e-12 -1.42377e-14 1.42377e-14)
(9.48076e-12 -1.92816e-14 1.92816e-14)
(9.10879e-12 -2.08646e-14 2.08646e-14)
(1.08049e-11 -1.76297e-14 1.76297e-14)
(1.89279e-11 -6.42752e-15 6.42752e-15)
(3.02006e-11 -1.3101e-15 1.3101e-15)
(2.08572e-11 0 0)
(-8.64706e-12 3.80618e-15 -3.80618e-15)
(-2.07504e-11 1.33235e-15 -1.33235e-15)
(-2.96385e-11 3.39639e-15 -3.39639e-15)
(-2.01113e-11 1.68418e-16 -1.68418e-16)
(-2.62389e-12 0 0)
(-3.55734e-11 -2.27047e-15 2.27047e-15)
(-4.06355e-11 0 0)
(-2.39733e-11 0 0)
(-7.10909e-12 9.8909e-16 -9.8909e-16)
(3.06781e-11 7.49558e-15 -7.49558e-15)
(4.31282e-11 7.95715e-15 -7.95715e-15)
(3.28296e-11 4.15892e-15 -4.15892e-15)
(2.52927e-11 1.55137e-16 -1.55137e-16)
(1.27032e-11 0 0)
(-4.69544e-12 2.91925e-15 -2.91925e-15)
(-5.59886e-12 0 0)
(-1.54138e-11 0 0)
(-4.11786e-11 0 0)
(-2.866e-11 0 0)
(2.94656e-11 0 0)
(2.83713e-11 0 0)
(-9.70174e-12 0 0)
(-2.21292e-11 0 0)
(4.63011e-11 2.40286e-15 -2.40286e-15)
(6.14326e-11 1.00612e-14 -1.00612e-14)
(1.95741e-11 1.7026e-14 -1.7026e-14)
(-2.48055e-12 2.46085e-14 -2.46085e-14)
(3.78898e-12 2.67103e-14 -2.67103e-14)
(-1.97815e-11 1.49109e-14 -1.49109e-14)
(-2.67497e-11 4.07346e-15 -4.07346e-15)
(-2.53292e-11 6.83937e-16 -6.83937e-16)
(-2.59659e-11 0 0)
(-2.33349e-11 0 0)
(-4.60479e-12 0 0)
(-4.47188e-12 0 0)
(-2.03751e-11 0 0)
(-1.66037e-11 0 0)
(9.95994e-12 0 0)
(1.86356e-11 -1.29453e-16 1.29453e-16)
(3.06788e-12 -9.89291e-16 9.89291e-16)
(-8.62219e-12 2.45116e-15 -2.45116e-15)
(-1.37198e-11 0 0)
(-1.64733e-11 -1.30971e-15 1.30971e-15)
(-1.48153e-11 -5.30986e-15 5.30986e-15)
(7.99505e-12 -4.66461e-15 4.66461e-15)
(3.18635e-11 -6.35447e-15 6.35447e-15)
(2.65032e-11 -4.71953e-15 4.71953e-15)
(-1.98737e-11 -8.60159e-15 8.60159e-15)
(4.93027e-12 -4.2804e-15 4.2804e-15)
(2.23976e-11 -3.60189e-15 3.60189e-15)
(1.08186e-11 -1.58666e-18 1.58666e-18)
(-4.07209e-12 1.3425e-15 -1.3425e-15)
(1.792e-11 3.48797e-15 -3.48797e-15)
(3.41885e-11 1.60963e-15 -1.60963e-15)
(7.12339e-12 2.48777e-15 -2.48777e-15)
(-2.5279e-11 8.49637e-16 -8.49637e-16)
(-1.16723e-11 1.42261e-15 -1.42261e-15)
(2.49421e-11 -2.57258e-15 2.57258e-15)
(4.16419e-11 -2.07253e-15 2.07253e-15)
(1.94946e-11 -4.02665e-15 4.02665e-15)
(-1.78789e-11 -9.69837e-15 9.69837e-15)
(-1.82902e-11 -1.43917e-14 1.43917e-14)
(-7.98024e-12 -1.20907e-14 1.20907e-14)
(-2.56313e-11 -2.85812e-15 2.85812e-15)
(-8.63789e-12 7.34754e-15 -7.34754e-15)
(-1.3442e-11 1.39138e-14 -1.39138e-14)
(-4.58218e-11 1.02237e-14 -1.02237e-14)
(2.14792e-12 5.41292e-15 -5.41292e-15)
(4.47186e-11 2.88581e-15 -2.88581e-15)
(3.83992e-11 2.4346e-15 -2.4346e-15)
(-3.32732e-11 1.57691e-14 -1.57691e-14)
(-1.2118e-11 6.96435e-15 -6.96435e-15)
(6.7686e-12 -2.93652e-15 2.93652e-15)
(3.35724e-12 -9.21034e-15 9.21034e-15)
(5.17728e-12 -5.72677e-15 5.72677e-15)
(-3.17391e-12 -4.45164e-15 4.45164e-15)
(-8.02879e-12 -6.21066e-15 6.21066e-15)
(1.10798e-11 -1.20666e-14 1.20666e-14)
(9.03946e-12 -2.01927e-14 2.01927e-14)
(5.29278e-12 -2.85325e-14 2.85325e-14)
(-1.63011e-11 -3.25146e-14 3.25146e-14)
(-1.32283e-11 -3.267e-14 3.267e-14)
(-3.17141e-12 -2.69225e-14 2.69225e-14)
(-4.96343e-12 -1.70984e-14 1.70984e-14)
(2.24431e-12 -1.01122e-14 1.01122e-14)
(1.45613e-12 -3.44132e-15 3.44132e-15)
(1.29298e-11 0 0)
(2.34153e-11 0 0)
(2.41826e-11 0 0)
(9.64538e-12 0 0)
(-2.71062e-11 0 0)
(-3.0218e-11 0 0)
(2.38722e-11 1.54762e-15 -1.54762e-15)
(1.17988e-11 4.36503e-15 -4.36503e-15)
(-7.40549e-13 -5.47872e-15 5.47872e-15)
(-5.53604e-12 -1.30708e-14 1.30708e-14)
(7.19612e-12 -1.23422e-14 1.23422e-14)
(1.27155e-11 -1.24265e-14 1.24265e-14)
(-1.56622e-12 -6.54232e-15 6.54232e-15)
(-9.88325e-12 1.22612e-15 -1.22612e-15)
(-2.05628e-11 7.76799e-15 -7.76799e-15)
(-2.6348e-11 1.50189e-15 -1.50189e-15)
(-1.29548e-12 0 0)
(2.72343e-11 0 0)
(2.55619e-11 0 0)
(6.30528e-12 -1.85464e-15 1.85464e-15)
(-1.41306e-11 -6.14699e-15 6.14699e-15)
(-1.62632e-11 -1.48592e-15 1.48592e-15)
(-5.48749e-12 -4.88129e-15 4.88129e-15)
(-8.74711e-12 -1.52629e-14 1.52629e-14)
(-1.79303e-11 -2.29335e-14 2.29335e-14)
(-1.47826e-11 -2.5742e-14 2.5742e-14)
(-1.24506e-11 -2.3027e-14 2.3027e-14)
(2.23645e-12 -1.59181e-14 1.59181e-14)
(6.2974e-12 -8.56347e-15 8.56347e-15)
(1.79677e-11 -4.55587e-15 4.55587e-15)
(2.44662e-11 -4.65339e-15 4.65339e-15)
(1.76247e-11 -6.53954e-15 6.53954e-15)
(4.33381e-11 -8.83205e-15 8.83205e-15)
(4.16748e-11 -2.45772e-15 2.45772e-15)
(2.27728e-11 -5.29387e-16 5.29387e-16)
)
;

boundaryField
{
    wedge0
    {
        type            wedge;
    }
    wedge1
    {
        type            wedge;
    }
    wedge2
    {
        type            wedge;
    }
    wedge3
    {
        type            wedge;
    }
    outlet
    {
        type            zeroGradient;
    }
    defaultFaces
    {
        type            empty;
    }
}


// ************************************************************************* //
