/*--------------------------------*- C++ -*----------------------------------*\
| =========                 |                                                 |
| \\      /  F ield         | OpenFOAM: The Open Source CFD Toolbox           |
|  \\    /   O peration     | Version:  2312                                  |
|   \\  /    A nd           | Website:  www.openfoam.com                      |
|    \\/     M anipulation  |                                                 |
\*---------------------------------------------------------------------------*/
FoamFile
{
    version     2.0;
    format      ascii;
    arch        "LSB;label=32;scalar=64";
    class       volScalarField;
    location    "0.001";
    object      rho;
}
// * * * * * * * * * * * * * * * * * * * * * * * * * * * * * * * * * * * * * //

dimensions      [1 -3 0 0 0 0 0];

internalField   nonuniform List<scalar> 
100
(
1.16102
1.16102
1.16102
1.16102
1.16102
1.16102
1.16102
1.16102
1.16102
1.16102
1.16102
1.16102
1.16102
1.16102
1.16102
1.16102
1.16102
1.16102
1.16102
1.16102
1.16102
1.16102
1.16102
1.16102
1.16102
1.16102
1.16102
1.16102
1.16102
1.16102
1.16102
1.16102
1.16102
1.16102
1.16102
1.16102
1.16102
1.16102
1.16102
1.16102
1.16102
1.161
1.16083
1.15968
1.15376
1.13064
1.06502
0.934456
0.759778
0.618552
0.507276
0.438713
0.375035
0.295904
0.231019
0.149043
0.120642
0.116608
0.116151
0.116106
0.116102
0.116102
0.116102
0.116102
0.116102
0.116102
0.116102
0.116102
0.116102
0.116102
0.116102
0.116102
0.116102
0.116102
0.116102
0.116102
0.116102
0.116102
0.116102
0.116102
0.116102
0.116102
0.116102
0.116102
0.116102
0.116102
0.116102
0.116102
0.116102
0.116102
0.116102
0.116102
0.116102
0.116102
0.116102
0.116102
0.116102
0.116102
0.116102
0.116102
)
;

boundaryField
{
    sides
    {
        type            zeroGradient;
    }
    empty
    {
        type            empty;
    }
}


// ************************************************************************* //
