/*--------------------------------*- C++ -*----------------------------------*\
| =========                 |                                                 |
| \\      /  F ield         | OpenFOAM: The Open Source CFD Toolbox           |
|  \\    /   O peration     | Version:  2312                                  |
|   \\  /    A nd           | Website:  www.openfoam.com                      |
|    \\/     M anipulation  |                                                 |
\*---------------------------------------------------------------------------*/
FoamFile
{
    version     2.0;
    format      ascii;
    arch        "LSB;label=32;scalar=64";
    class       volVectorField;
    location    "0.001";
    object      U;
}
// * * * * * * * * * * * * * * * * * * * * * * * * * * * * * * * * * * * * * //

dimensions      [0 1 -1 0 0 0 0];

internalField   nonuniform List<vector> 
100
(
(1.82202e-14 0 0)
(7.85825e-14 0 0)
(4.46947e-14 0 0)
(-4.15806e-14 0 0)
(-3.65166e-14 0 0)
(-2.933e-14 0 0)
(6.27325e-14 0 0)
(2.09196e-14 0 0)
(-9.88048e-15 0 0)
(-1.31238e-16 0 0)
(-2.15546e-14 0 0)
(2.48258e-14 0 0)
(1.18058e-14 0 0)
(-4.19773e-14 0 0)
(-2.04822e-14 0 0)
(1.26394e-14 0 0)
(3.48821e-14 0 0)
(4.18193e-15 0 0)
(-2.59194e-14 0 0)
(1.67288e-15 0 0)
(-4.39927e-30 0 0)
(3.06511e-14 0 0)
(9.44542e-15 0 0)
(-3.38444e-14 0 0)
(-2.20638e-14 0 0)
(2.5888e-14 0 0)
(-2.02969e-14 0 0)
(-2.80516e-14 0 0)
(-1.23342e-14 0 0)
(2.02196e-14 0 0)
(-1.05729e-14 0 0)
(2.60495e-15 0 0)
(7.92502e-15 0 0)
(6.74536e-14 0 0)
(5.75748e-12 0 0)
(2.23166e-10 0 0)
(6.78396e-09 0 0)
(1.6506e-07 0 0)
(3.24803e-06 0 0)
(5.20176e-05 0 0)
(0.000679633 0 0)
(0.00723396 0 0)
(0.0623748 0 0)
(0.431078 0 0)
(2.35016 0 0)
(9.92517 0 0)
(32.1209 0 0)
(80.5768 0 0)
(150.169 0 0)
(203.335 0 0)
(251.156 0 0)
(295.908 0 0)
(296.528 0 0)
(301.197 0 0)
(270.515 0 0)
(106.506 0 0)
(15.2411 0 0)
(1.6335 0 0)
(0.156095 0 0)
(0.0130853 0 0)
(0.000935257 0 0)
(5.61515e-05 0 0)
(2.79372e-06 0 0)
(1.1363e-07 0 0)
(3.71602e-09 0 0)
(9.57767e-11 0 0)
(1.89161e-12 0 0)
(-9.90628e-15 0 0)
(5.94377e-14 0 0)
(1.165e-13 0 0)
(8.30158e-14 0 0)
(5.35158e-14 0 0)
(2.31592e-14 0 0)
(-3.09091e-14 0 0)
(-3.58596e-14 0 0)
(9.90628e-15 0 0)
(5.88197e-14 0 0)
(5.5228e-15 0 0)
(-5.11245e-15 0 0)
(-1.9605e-14 0 0)
(-2.97188e-14 0 0)
(5.18394e-14 0 0)
(2.59688e-15 0 0)
(-5.11245e-15 0 0)
(-1.9605e-14 0 0)
(-2.97188e-14 0 0)
(4.19331e-14 0 0)
(-7.3094e-15 0 0)
(-2.4925e-14 0 0)
(-1.2594e-13 0 0)
(-6.5837e-14 0 0)
(5.03569e-14 0 0)
(1.1163e-13 0 0)
(6.92239e-14 0 0)
(8.39203e-14 0 0)
(2.08568e-14 0 0)
(5.03569e-14 0 0)
(3.48651e-15 0 0)
(-1.00263e-14 0 0)
(9.09647e-14 0 0)
)
;

boundaryField
{
    sides
    {
        type            zeroGradient;
    }
    empty
    {
        type            empty;
    }
}


// ************************************************************************* //
