/*--------------------------------*- C++ -*----------------------------------*\
| =========                 |                                                 |
| \\      /  F ield         | OpenFOAM: The Open Source CFD Toolbox           |
|  \\    /   O peration     | Version:  2312                                  |
|   \\  /    A nd           | Website:  www.openfoam.com                      |
|    \\/     M anipulation  |                                                 |
\*---------------------------------------------------------------------------*/
FoamFile
{
    version     2.0;
    format      ascii;
    arch        "LSB;label=32;scalar=64";
    class       volVectorField;
    location    "0.003";
    object      U;
}
// * * * * * * * * * * * * * * * * * * * * * * * * * * * * * * * * * * * * * //

dimensions      [0 1 -1 0 0 0 0];

internalField   nonuniform List<vector> 
100
(
(9.13809e-14 0 0)
(1.3725e-13 0 0)
(1.26488e-13 0 0)
(1.158e-13 0 0)
(7.44532e-14 0 0)
(8.99264e-14 0 0)
(6.16927e-14 0 0)
(-6.87013e-15 0 0)
(-6.47353e-14 0 0)
(-8.92348e-14 0 0)
(-9.29509e-14 0 0)
(-1.23638e-13 0 0)
(-7.02085e-14 0 0)
(2.22037e-14 0 0)
(-1.32984e-14 0 0)
(1.18202e-14 0 0)
(-1.01766e-13 0 0)
(-9.40904e-14 0 0)
(-5.5379e-14 0 0)
(-5.22997e-14 0 0)
(3.19172e-14 0 0)
(1.08222e-12 0 0)
(1.28645e-11 0 0)
(1.31961e-10 0 0)
(1.25358e-09 0 0)
(1.10487e-08 0 0)
(9.02289e-08 0 0)
(6.81853e-07 0 0)
(4.76036e-06 0 0)
(3.06419e-05 0 0)
(0.000181404 0 0)
(0.000984715 0 0)
(0.00488302 0 0)
(0.0220176 0 0)
(0.0897558 0 0)
(0.328461 0 0)
(1.06993 0 0)
(3.0736 0 0)
(7.7205 0 0)
(16.8702 0 0)
(32.1066 0 0)
(53.7394 0 0)
(80.6229 0 0)
(108.078 0 0)
(134.681 0 0)
(159.962 0 0)
(184.242 0 0)
(207.604 0 0)
(229.941 0 0)
(249.538 0 0)
(267.357 0 0)
(279.093 0 0)
(285.392 0 0)
(289.244 0 0)
(289.643 0 0)
(289.16 0 0)
(288.051 0 0)
(288.29 0 0)
(288.202 0 0)
(287.273 0 0)
(283.36 0 0)
(285.941 0 0)
(287.495 0 0)
(294.203 0 0)
(294.865 0 0)
(284.343 0 0)
(185.34 0 0)
(27.0122 0 0)
(2.09175 0 0)
(0.158174 0 0)
(0.0120143 0 0)
(0.00093607 0 0)
(7.51426e-05 0 0)
(6.23876e-06 0 0)
(5.32695e-07 0 0)
(4.61336e-08 0 0)
(3.98058e-09 0 0)
(3.3632e-10 0 0)
(2.74569e-11 0 0)
(2.1033e-12 0 0)
(1.35972e-13 0 0)
(7.88623e-15 0 0)
(-2.36332e-14 0 0)
(-7.33658e-14 0 0)
(-1.14918e-14 0 0)
(8.22514e-14 0 0)
(1.63237e-13 0 0)
(1.50386e-13 0 0)
(3.69087e-14 0 0)
(8.13799e-14 0 0)
(9.87904e-14 0 0)
(1.21288e-13 0 0)
(1.28053e-13 0 0)
(6.30405e-14 0 0)
(-1.12328e-14 0 0)
(3.57835e-14 0 0)
(2.02277e-14 0 0)
(4.94876e-14 0 0)
(6.09446e-14 0 0)
(6.03236e-14 0 0)
)
;

boundaryField
{
    sides
    {
        type            zeroGradient;
    }
    empty
    {
        type            empty;
    }
}


// ************************************************************************* //
