/*--------------------------------*- C++ -*----------------------------------*\
| =========                 |                                                 |
| \\      /  F ield         | OpenFOAM: The Open Source CFD Toolbox           |
|  \\    /   O peration     | Version:  2312                                  |
|   \\  /    A nd           | Website:  www.openfoam.com                      |
|    \\/     M anipulation  |                                                 |
\*---------------------------------------------------------------------------*/
FoamFile
{
    version     2.0;
    format      ascii;
    arch        "LSB;label=32;scalar=64";
    class       volScalarField;
    location    "7e-05";
    object      rho;
}
// * * * * * * * * * * * * * * * * * * * * * * * * * * * * * * * * * * * * * //

dimensions      [1 -3 0 0 0 0 0];

internalField   nonuniform List<scalar> 
500
(
0.00608942
0.00609322
0.00609856
0.00610573
0.0061149
0.00612615
0.00613952
0.00615505
0.00617276
0.00619268
0.00621483
0.00623925
0.00626595
0.00629496
0.00632633
0.00636007
0.00639624
0.00643485
0.00647597
0.00651961
0.00656585
0.00661471
0.00666626
0.00672055
0.00677764
0.00683758
0.00690044
0.00696629
0.0070352
0.00710725
0.0071825
0.00726106
0.00734299
0.0074284
0.00751737
0.00761002
0.00770643
0.00780673
0.00791103
0.00801944
0.0081321
0.00824913
0.00837067
0.00849687
0.00862788
0.00876385
0.00890495
0.00905135
0.00920322
0.00936077
0.00952419
0.00969367
0.00986944
0.0100517
0.0102407
0.0104367
0.01064
0.0108508
0.0110693
0.011296
0.011531
0.0117748
0.0120276
0.0122898
0.0125618
0.0128439
0.0131365
0.0134401
0.0137552
0.014082
0.0144213
0.0147733
0.0151388
0.0155181
0.0159119
0.0163209
0.0167455
0.0171865
0.0176446
0.0181205
0.0186149
0.0191287
0.0196626
0.0202176
0.0207944
0.0213942
0.0220179
0.0226665
0.0233411
0.0240429
0.024773
0.0255328
0.0263235
0.0271464
0.0280032
0.0288952
0.0298241
0.0307914
0.031799
0.0328487
0.0339423
0.0350818
0.0362695
0.0375073
0.0387977
0.0401431
0.0415458
0.0430087
0.0445344
0.0461258
0.047786
0.0495181
0.0513254
0.0532115
0.0551798
0.0572343
0.059379
0.0616179
0.0639554
0.0663961
0.0689448
0.0716064
0.0743862
0.0772897
0.0803224
0.0834905
0.0868002
0.0902579
0.0938705
0.0976452
0.101589
0.105711
0.110018
0.114519
0.119223
0.124139
0.129278
0.134648
0.140262
0.146129
0.152263
0.158674
0.165376
0.172382
0.179707
0.187364
0.19537
0.20374
0.212492
0.221642
0.231211
0.241217
0.25168
0.262623
0.274069
0.28604
0.298563
0.311663
0.32537
0.339711
0.354719
0.370427
0.386869
0.404081
0.422105
0.440979
0.46075
0.481463
0.503168
0.525917
0.549768
0.57478
0.601017
0.628547
0.657444
0.687785
0.719655
0.753142
0.788343
0.825361
0.864307
0.905299
0.948466
0.993946
1.04189
1.09245
1.1458
1.20214
1.26165
1.32456
1.3911
1.46151
1.53608
1.6151
1.69887
1.78773
1.88178
1.9808
2.08547
2.19638
2.31399
2.43874
2.571
2.71103
2.85889
3.01428
3.1763
3.34292
3.51028
3.67138
3.8141
3.91827
3.95211
3.86975
3.61551
3.14743
2.49281
1.82276
1.37142
1.2006
1.16622
1.1616
1.16107
1.16101
1.161
1.161
1.161
1.161
1.161
1.161
1.161
1.161
1.161
1.161
1.161
1.161
1.161
1.161
1.161
1.161
1.161
1.161
1.161
1.161
1.161
1.161
1.161
1.161
1.161
1.161
1.161
1.161
1.161
1.161
1.161
1.161
1.161
1.161
1.161
1.161
1.161
1.161
1.161
1.161
1.161
1.161
1.161
1.161
1.161
1.161
1.161
1.161
1.161
1.161
1.161
1.161
1.161
1.161
1.161
1.161
1.161
1.161
1.161
1.161
1.161
1.161
1.161
1.161
1.161
1.161
1.161
1.161
1.161
1.161
1.161
1.161
1.161
1.161
1.161
1.161
1.161
1.161
1.161
1.161
1.161
1.161
1.161
1.161
1.161
1.161
1.161
1.161
1.161
1.161
1.161
1.161
1.161
1.161
1.161
1.161
1.161
1.161
1.161
1.161
1.161
1.161
1.161
1.161
1.161
1.161
1.161
1.161
1.161
1.161
1.161
1.161
1.161
1.161
1.161
1.161
1.161
1.161
1.161
1.161
1.161
1.161
1.161
1.161
1.161
1.161
1.161
1.161
1.161
1.161
1.161
1.161
1.161
1.161
1.161
1.161
1.161
1.161
1.161
1.161
1.161
1.161
1.161
1.161
1.161
1.161
1.161
1.161
1.161
1.161
1.161
1.161
1.161
1.161
1.161
1.161
1.161
1.161
1.161
1.161
1.161
1.161
1.161
1.161
1.161
1.161
1.161
1.161
1.161
1.161
1.161
1.161
1.161
1.161
1.161
1.161
1.161
1.161
1.161
1.161
1.161
1.161
1.161
1.161
1.161
1.161
1.161
1.161
1.161
1.161
1.161
1.161
1.161
1.161
1.161
1.161
1.161
1.161
1.161
1.161
1.161
1.161
1.161
1.161
1.161
1.161
1.161
1.161
1.161
1.161
1.161
1.161
1.161
1.161
1.161
1.161
1.161
1.161
1.161
1.161
1.161
1.161
1.161
1.161
1.161
1.161
1.161
1.161
1.161
1.161
1.161
1.161
1.161
1.161
1.161
1.161
1.161
1.161
1.161
1.161
1.161
1.161
1.161
1.161
1.161
1.161
1.161
1.161
1.161
1.161
1.161
1.161
1.161
1.161
1.161
1.161
1.161
1.161
1.161
1.161
1.161
1.161
1.161
1.161
1.161
1.161
1.161
1.161
1.161
1.161
1.161
1.161
1.161
1.161
1.161
1.161
)
;

boundaryField
{
    wedge0
    {
        type            wedge;
    }
    wedge1
    {
        type            wedge;
    }
    wedge2
    {
        type            wedge;
    }
    wedge3
    {
        type            wedge;
    }
    outlet
    {
        type            zeroGradient;
    }
    defaultFaces
    {
        type            empty;
    }
}


// ************************************************************************* //
