/*--------------------------------*- C++ -*----------------------------------*\
| =========                 |                                                 |
| \\      /  F ield         | OpenFOAM: The Open Source CFD Toolbox           |
|  \\    /   O peration     | Version:  2312                                  |
|   \\  /    A nd           | Website:  www.openfoam.com                      |
|    \\/     M anipulation  |                                                 |
\*---------------------------------------------------------------------------*/
FoamFile
{
    version     2.0;
    format      ascii;
    arch        "LSB;label=32;scalar=64";
    class       volScalarField;
    location    "7e-05";
    object      T;
}
// * * * * * * * * * * * * * * * * * * * * * * * * * * * * * * * * * * * * * //

dimensions      [0 0 0 1 0 0 0];

internalField   nonuniform List<scalar> 
500
(
301753
301679
301486
301180
300764
300241
299612
298878
298040
297098
296055
294912
293669
292329
290892
289361
287737
286021
284217
282325
280347
278287
276145
273925
271628
269257
266814
264302
261723
259080
256375
253612
250792
247919
244994
242022
239004
235944
232843
229706
226534
223331
220099
216841
213559
210256
206936
203600
200251
196892
193525
190153
186778
183403
180029
176660
173297
169943
166600
163270
159954
156655
153375
150116
146879
143666
140478
137318
134187
131085
128015
124978
121975
119008
116076
113182
110326
107510
104733
101997
99303
96650.8
94041.4
91475.3
88952.8
86474.5
84040.6
81651.5
79307.4
77008.5
74754.8
72546.6
70383.8
68266.4
66194.4
64167.6
62186
60249.2
58357.2
56509.6
54706.2
52946.6
51230.5
49557.4
47927
46338.8
44792.2
43286.9
41822.3
40397.9
39013
37667.1
36359.6
35089.8
33857.3
32661.2
31501
30375.9
29285.4
28228.7
27205.1
26214
25254.6
24326.3
23428.3
22560
21720.6
20909.5
20125.9
19369.1
18638.5
17933.3
17253
16596.7
15963.9
15353.9
14765.9
14199.4
13653.8
13128.4
12622.5
12135.6
11667.1
11216.4
10782.8
10366
9965.18
9579.95
9209.75
8854.05
8512.36
8184.17
7869.01
7566.42
7275.94
6997.12
6729.54
6472.79
6226.44
5990.12
5763.44
5546.03
5337.54
5137.62
4945.94
4762.17
4586
4417.14
4255.28
4100.16
3951.49
3809.03
3672.52
3541.73
3416.41
3296.35
3181.33
3071.16
2965.62
2864.53
2767.72
2675
2586.21
2501.2
2419.8
2341.87
2267.27
2195.86
2127.53
2062.14
1999.58
1939.73
1882.49
1827.76
1775.44
1725.44
1677.83
1632.92
1590.34
1549.8
1511.15
1474.26
1439.02
1405.32
1373.04
1342.02
1312.05
1282.81
1253.85
1224.45
1193.46
1159.02
1118.01
1065.12
991.205
881.246
721.121
521.436
361.327
307.741
300.717
300.069
300.007
300.001
300
300
300
300
300
300
300
300
300
300
300
300
300
300
300
300
300
300
300
300
300
300
300
300
300
300
300
300
300
300
300
300
300
300
300
300
300
300
300
300
300
300
300
300
300
300
300
300
300
300
300
300
300
300
300
300
300
300
300
300
300
300
300
300
300
300
300
300
300
300
300
300
300
300
300
300
300
300
300
300
300
300
300
300
300
300
300
300
300
300
300
300
300
300
300
300
300
300
300
300
300
300
300
300
300
300
300
300
300
300
300
300
300
300
300
300
300
300
300
300
300
300
300
300
300
300
300
300
300
300
300
300
300
300
300
300
300
300
300
300
300
300
300
300
300
300
300
300
300
300
300
300
300
300
300
300
300
300
300
300
300
300
300
300
300
300
300
300
300
300
300
300
300
300
300
300
300
300
300
300
300
300
300
300
300
300
300
300
300
300
300
300
300
300
300
300
300
300
300
300
300
300
300
300
300
300
300
300
300
300
300
300
300
300
300
300
300
300
300
300
300
300
300
300
300
300
300
300
300
300
300
300
300
300
300
300
300
300
300
300
300
300
300
300
300
300
300
300
300
300
300
300
300
300
300
300
300
300
300
300
300
300
300
300
300
300
300
300
300
300
300
300
300
300
300
300
)
;

boundaryField
{
    wedge0
    {
        type            wedge;
    }
    wedge1
    {
        type            wedge;
    }
    wedge2
    {
        type            wedge;
    }
    wedge3
    {
        type            wedge;
    }
    outlet
    {
        type            zeroGradient;
    }
    defaultFaces
    {
        type            empty;
    }
}


// ************************************************************************* //
