/*--------------------------------*- C++ -*----------------------------------*\
| =========                 |                                                 |
| \\      /  F ield         | OpenFOAM: The Open Source CFD Toolbox           |
|  \\    /   O peration     | Version:  2312                                  |
|   \\  /    A nd           | Website:  www.openfoam.com                      |
|    \\/     M anipulation  |                                                 |
\*---------------------------------------------------------------------------*/
FoamFile
{
    version     2.0;
    format      ascii;
    arch        "LSB;label=32;scalar=64";
    class       volScalarField;
    location    "7e-05";
    object      thermo:e;
}
// * * * * * * * * * * * * * * * * * * * * * * * * * * * * * * * * * * * * * //

dimensions      [0 2 -2 0 0 0 0];

internalField   nonuniform List<scalar> 
500
(
2.16568e+08
2.16515e+08
2.16376e+08
2.16157e+08
2.15858e+08
2.15483e+08
2.15032e+08
2.14505e+08
2.13903e+08
2.13227e+08
2.12479e+08
2.11658e+08
2.10766e+08
2.09804e+08
2.08773e+08
2.07674e+08
2.06509e+08
2.05278e+08
2.03982e+08
2.02624e+08
2.01205e+08
1.99726e+08
1.98189e+08
1.96596e+08
1.94947e+08
1.93246e+08
1.91492e+08
1.89689e+08
1.87839e+08
1.85942e+08
1.84001e+08
1.82017e+08
1.79993e+08
1.77931e+08
1.75832e+08
1.73699e+08
1.71533e+08
1.69337e+08
1.67112e+08
1.6486e+08
1.62584e+08
1.60285e+08
1.57965e+08
1.55626e+08
1.53271e+08
1.50901e+08
1.48518e+08
1.46124e+08
1.4372e+08
1.41309e+08
1.38893e+08
1.36473e+08
1.34051e+08
1.31628e+08
1.29207e+08
1.26789e+08
1.24376e+08
1.21968e+08
1.19569e+08
1.17179e+08
1.14799e+08
1.12432e+08
1.10078e+08
1.07738e+08
1.05415e+08
1.03109e+08
1.00821e+08
9.85532e+07
9.63057e+07
9.40799e+07
9.18766e+07
8.9697e+07
8.75417e+07
8.54118e+07
8.33079e+07
8.12308e+07
7.91812e+07
7.71597e+07
7.51669e+07
7.32034e+07
7.12697e+07
6.93663e+07
6.74935e+07
6.56518e+07
6.38414e+07
6.20628e+07
6.0316e+07
5.86013e+07
5.69189e+07
5.5269e+07
5.36516e+07
5.20667e+07
5.05145e+07
4.89948e+07
4.75077e+07
4.60531e+07
4.46309e+07
4.32409e+07
4.1883e+07
4.0557e+07
3.92627e+07
3.79998e+07
3.67681e+07
3.55674e+07
3.43972e+07
3.32573e+07
3.21474e+07
3.1067e+07
3.00159e+07
2.89935e+07
2.79996e+07
2.70337e+07
2.60953e+07
2.5184e+07
2.42994e+07
2.34409e+07
2.26082e+07
2.18008e+07
2.10181e+07
2.02597e+07
1.95251e+07
1.88138e+07
1.81252e+07
1.7459e+07
1.68145e+07
1.61913e+07
1.55889e+07
1.50067e+07
1.44443e+07
1.39012e+07
1.33768e+07
1.28708e+07
1.23825e+07
1.19115e+07
1.14573e+07
1.10195e+07
1.05975e+07
1.01909e+07
9.79933e+06
9.42222e+06
9.05916e+06
8.70972e+06
8.37347e+06
8.04998e+06
7.73884e+06
7.43965e+06
7.15201e+06
6.87553e+06
6.60984e+06
6.35455e+06
6.10932e+06
5.87378e+06
5.64759e+06
5.43042e+06
5.22194e+06
5.02183e+06
4.82979e+06
4.64552e+06
4.46872e+06
4.29911e+06
4.13642e+06
3.98039e+06
3.83076e+06
3.68727e+06
3.5497e+06
3.41781e+06
3.29137e+06
3.17018e+06
3.05401e+06
2.94268e+06
2.83599e+06
2.73374e+06
2.63577e+06
2.5419e+06
2.45196e+06
2.36579e+06
2.28324e+06
2.20417e+06
2.12842e+06
2.05588e+06
1.98639e+06
1.91985e+06
1.85613e+06
1.79511e+06
1.73669e+06
1.68076e+06
1.62722e+06
1.57597e+06
1.52693e+06
1.48e+06
1.4351e+06
1.39214e+06
1.35107e+06
1.31179e+06
1.27424e+06
1.23835e+06
1.20418e+06
1.17195e+06
1.14139e+06
1.11229e+06
1.08455e+06
1.05808e+06
1.03279e+06
1.0086e+06
985432
963168
941655
920673
899888
878787
856548
831830
802396
764437
711388
632470
517549
374235
259324
220866
215825
215360
215315
215311
215310
215310
215310
215310
215310
215310
215310
215310
215310
215310
215310
215310
215310
215310
215310
215310
215310
215310
215310
215310
215310
215310
215310
215310
215310
215310
215310
215310
215310
215310
215310
215310
215310
215310
215310
215310
215310
215310
215310
215310
215310
215310
215310
215310
215310
215310
215310
215310
215310
215310
215310
215310
215310
215310
215310
215310
215310
215310
215310
215310
215310
215310
215310
215310
215310
215310
215310
215310
215310
215310
215310
215310
215310
215310
215310
215310
215310
215310
215310
215310
215310
215310
215310
215310
215310
215310
215310
215310
215310
215310
215310
215310
215310
215310
215310
215310
215310
215310
215310
215310
215310
215310
215310
215310
215310
215310
215310
215310
215310
215310
215310
215310
215310
215310
215310
215310
215310
215310
215310
215310
215310
215310
215310
215310
215310
215310
215310
215310
215310
215310
215310
215310
215310
215310
215310
215310
215310
215310
215310
215310
215310
215310
215310
215310
215310
215310
215310
215310
215310
215310
215310
215310
215310
215310
215310
215310
215310
215310
215310
215310
215310
215310
215310
215310
215310
215310
215310
215310
215310
215310
215310
215310
215310
215310
215310
215310
215310
215310
215310
215310
215310
215310
215310
215310
215310
215310
215310
215310
215310
215310
215310
215310
215310
215310
215310
215310
215310
215310
215310
215310
215310
215310
215310
215310
215310
215310
215310
215310
215310
215310
215310
215310
215310
215310
215310
215310
215310
215310
215310
215310
215310
215310
215310
215310
215310
215310
215310
215310
215310
215310
215310
215310
215310
215310
215310
215310
215310
215310
215310
215310
215310
215310
215310
215310
215310
215310
215310
215310
215310
215310
215310
215310
215310
215310
215310
215310
215310
215310
215310
215310
215310
215310
215310
215310
215310
215310
215310
215310
215310
215310
215310
215310
215310
215310
215310
215310
)
;

boundaryField
{
    wedge0
    {
        type            wedge;
    }
    wedge1
    {
        type            wedge;
    }
    wedge2
    {
        type            wedge;
    }
    wedge3
    {
        type            wedge;
    }
    outlet
    {
        type            zeroGradient;
    }
    defaultFaces
    {
        type            empty;
    }
}


// ************************************************************************* //
