/*--------------------------------*- C++ -*----------------------------------*\
| =========                 |                                                 |
| \\      /  F ield         | OpenFOAM: The Open Source CFD Toolbox           |
|  \\    /   O peration     | Version:  2312                                  |
|   \\  /    A nd           | Website:  www.openfoam.com                      |
|    \\/     M anipulation  |                                                 |
\*---------------------------------------------------------------------------*/
FoamFile
{
    version     2.0;
    format      ascii;
    arch        "LSB;label=32;scalar=64";
    class       volVectorField;
    location    "7e-05";
    object      U;
}
// * * * * * * * * * * * * * * * * * * * * * * * * * * * * * * * * * * * * * //

dimensions      [0 1 -1 0 0 0 0];

internalField   nonuniform List<vector> 
500
(
(3.71729 -3.66826e-10 3.69442e-10)
(6.69322 -3.46985e-10 3.50503e-10)
(10.0127 -3.73892e-10 3.76862e-10)
(13.5386 -3.7704e-10 3.81212e-10)
(17.1468 -3.49096e-10 3.52277e-10)
(20.7949 -3.50367e-10 3.53902e-10)
(24.4652 -3.46915e-10 3.50708e-10)
(28.1491 -3.43074e-10 3.45231e-10)
(31.8418 -3.24648e-10 3.25572e-10)
(35.5408 -2.9789e-10 2.9786e-10)
(39.2443 -2.7415e-10 2.74161e-10)
(42.9511 -2.51964e-10 2.51959e-10)
(46.6605 -2.3188e-10 2.31909e-10)
(50.3719 -2.11488e-10 2.11494e-10)
(54.085 -1.90577e-10 1.9058e-10)
(57.7995 -1.69722e-10 1.69723e-10)
(61.5151 -1.50674e-10 1.50637e-10)
(65.2317 -1.40694e-10 1.40686e-10)
(68.9491 -1.32785e-10 1.32781e-10)
(72.6673 -1.29913e-10 1.29928e-10)
(76.3861 -1.2818e-10 1.28179e-10)
(80.1055 -1.28263e-10 1.28265e-10)
(83.8255 -1.27214e-10 1.2721e-10)
(87.5459 -1.27127e-10 1.27127e-10)
(91.2667 -1.2618e-10 1.26192e-10)
(94.988 -1.23267e-10 1.23269e-10)
(98.7097 -1.2111e-10 1.21108e-10)
(102.432 -1.20115e-10 1.20102e-10)
(106.154 -1.15087e-10 1.15071e-10)
(109.877 -1.11988e-10 1.1199e-10)
(113.6 -1.0836e-10 1.08361e-10)
(117.324 -1.05555e-10 1.05555e-10)
(121.047 -9.94107e-11 9.94107e-11)
(124.771 -9.48662e-11 9.48662e-11)
(128.496 -9.12103e-11 9.12103e-11)
(132.22 -8.75033e-11 8.75033e-11)
(135.945 -8.37351e-11 8.37351e-11)
(139.671 -7.994e-11 7.994e-11)
(143.396 -7.72584e-11 7.72584e-11)
(147.122 -7.40911e-11 7.40911e-11)
(150.849 -7.0001e-11 7.0001e-11)
(154.575 -6.40834e-11 6.40834e-11)
(158.302 -5.90857e-11 5.90857e-11)
(162.029 -5.46455e-11 5.46455e-11)
(165.757 -5.10339e-11 5.10339e-11)
(169.485 -4.70872e-11 4.70872e-11)
(173.213 -4.17491e-11 4.17491e-11)
(176.942 -3.71652e-11 3.71652e-11)
(180.671 -3.17788e-11 3.17788e-11)
(184.4 -2.74919e-11 2.74919e-11)
(188.13 -2.29343e-11 2.29343e-11)
(191.86 -1.88177e-11 1.88177e-11)
(195.591 -1.5221e-11 1.5221e-11)
(199.322 -1.21062e-11 1.21062e-11)
(203.053 -8.73844e-12 8.73844e-12)
(206.785 -5.60905e-12 5.60905e-12)
(210.518 -2.70709e-12 2.70709e-12)
(214.251 2.17522e-13 -2.17522e-13)
(217.984 2.50999e-12 -2.50999e-12)
(221.718 4.21995e-12 -4.21995e-12)
(225.452 4.25853e-12 -4.25853e-12)
(229.187 4.0713e-12 -4.0713e-12)
(232.923 4.02057e-12 -4.02057e-12)
(236.659 3.92999e-12 -3.92999e-12)
(240.396 3.87109e-12 -3.87109e-12)
(244.133 3.75904e-12 -3.75904e-12)
(247.871 3.75794e-12 -3.75794e-12)
(251.61 3.89561e-12 -3.89561e-12)
(255.349 3.64742e-12 -3.64742e-12)
(259.089 3.59491e-12 -3.59491e-12)
(262.83 3.54796e-12 -3.54796e-12)
(266.571 3.49719e-12 -3.49719e-12)
(270.314 3.38979e-12 -3.38979e-12)
(274.057 3.47108e-12 -3.47108e-12)
(277.801 3.35658e-12 -3.35661e-12)
(281.546 3.45151e-12 -3.45159e-12)
(285.292 3.27166e-12 -3.2719e-12)
(289.039 3.19764e-12 -3.19293e-12)
(292.786 2.86664e-12 -2.85806e-12)
(296.535 2.28257e-12 -2.26879e-12)
(300.285 1.88928e-12 -1.86969e-12)
(304.036 1.73066e-12 -1.70383e-12)
(307.789 1.80353e-12 -1.77079e-12)
(311.542 1.21762e-12 -1.17724e-12)
(315.297 4.75822e-13 -4.34844e-13)
(319.053 -4.9839e-13 5.205e-13)
(322.811 -9.15864e-13 9.16785e-13)
(326.57 -1.33466e-12 1.33558e-12)
(330.33 -1.22307e-12 1.2238e-12)
(334.092 -1.29217e-12 1.29289e-12)
(337.855 -1.5453e-12 1.54605e-12)
(341.621 -1.32107e-12 1.32132e-12)
(345.388 -1.25188e-12 1.25254e-12)
(349.157 -1.34254e-12 1.34137e-12)
(352.927 -9.97358e-13 9.94599e-13)
(356.7 -7.79018e-13 7.65462e-13)
(360.475 -6.89751e-13 6.65592e-13)
(364.252 -5.31169e-13 5.3029e-13)
(368.031 -3.83272e-13 3.88236e-13)
(371.813 -1.0043e-13 1.11825e-13)
(375.597 -1.59166e-13 1.77561e-13)
(379.383 -1.07496e-13 1.34345e-13)
(383.173 -3.91292e-15 3.30942e-14)
(386.965 0 -6.06715e-15)
(390.76 5.42117e-14 -1.55638e-13)
(394.558 2.17797e-13 -2.99677e-13)
(398.36 1.8431e-13 -2.42707e-13)
(402.164 3.53291e-13 -3.84488e-13)
(405.973 3.61912e-13 -3.6177e-13)
(409.785 3.21948e-13 -3.2723e-13)
(413.6 4.54784e-13 -4.66271e-13)
(417.42 7.80835e-13 -8.00245e-13)
(421.244 9.64278e-13 -9.79567e-13)
(425.073 1.34675e-12 -1.35719e-12)
(428.906 1.82716e-12 -1.83315e-12)
(432.744 1.97389e-12 -1.97404e-12)
(436.586 1.83296e-12 -1.83437e-12)
(440.435 1.55524e-12 -1.55791e-12)
(444.288 1.24998e-12 -1.25022e-12)
(448.148 7.93295e-13 -7.93701e-13)
(452.014 6.30223e-13 -6.303e-13)
(455.886 5.6407e-13 -5.64375e-13)
(459.765 3.75279e-13 -3.75307e-13)
(463.65 2.62166e-13 -2.61983e-13)
(467.543 2.36885e-13 -2.37099e-13)
(471.444 2.80159e-13 -2.80034e-13)
(475.353 2.36369e-13 -2.36349e-13)
(479.271 2.33526e-13 -2.33668e-13)
(483.197 2.33687e-13 -2.33761e-13)
(487.133 2.33477e-13 -2.33479e-13)
(491.079 2.11658e-13 -2.11007e-13)
(495.034 9.86191e-14 -9.71794e-14)
(499.001 3.73172e-14 -3.45731e-14)
(502.979 -9.29498e-14 9.29498e-14)
(506.969 -2.46677e-13 2.46677e-13)
(510.971 -2.28148e-13 2.28148e-13)
(514.987 -1.17343e-13 1.17343e-13)
(519.016 -1.88202e-13 1.88202e-13)
(523.06 -2.22856e-13 2.22856e-13)
(527.119 -2.22723e-13 2.22723e-13)
(531.194 -2.10683e-13 2.10683e-13)
(535.286 -2.20496e-13 2.20496e-13)
(539.395 -2.41354e-13 2.41354e-13)
(543.523 -2.18193e-13 2.18193e-13)
(547.67 -2.16566e-13 2.16566e-13)
(551.837 -2.21375e-13 2.21375e-13)
(556.026 -1.79623e-13 1.79623e-13)
(560.237 -1.10294e-13 1.10294e-13)
(564.472 -4.16282e-14 4.16282e-14)
(568.732 4.56372e-14 -4.56372e-14)
(573.017 3.78359e-14 -3.78359e-14)
(577.33 -2.57423e-14 2.57423e-14)
(581.672 1.19827e-14 -1.19827e-14)
(586.043 5.2681e-14 -5.2681e-14)
(590.446 -1.44694e-14 1.44694e-14)
(594.882 0 0)
(599.353 -3.95632e-15 3.98942e-15)
(603.861 -5.51289e-14 5.5205e-14)
(608.406 -2.86919e-14 2.88075e-14)
(612.992 -1.07153e-13 1.07342e-13)
(617.62 -1.53098e-13 1.53381e-13)
(622.292 -1.39071e-13 1.39551e-13)
(627.01 -1.11373e-13 1.11791e-13)
(631.777 -1.79503e-13 1.7977e-13)
(636.594 -1.56667e-13 1.56654e-13)
(641.465 -1.46139e-13 1.46135e-13)
(646.392 -1.36368e-13 1.36379e-13)
(651.377 -8.93084e-14 8.93363e-14)
(656.423 -8.70541e-14 8.71403e-14)
(661.533 -6.93152e-14 6.94006e-14)
(666.71 -6.41921e-14 6.4281e-14)
(671.958 -9.4135e-14 9.42082e-14)
(677.279 -9.78102e-14 9.78393e-14)
(682.676 -8.8072e-14 8.81037e-14)
(688.154 -1.05285e-13 1.05314e-13)
(693.715 -1.11982e-13 1.12014e-13)
(699.363 -8.46125e-14 8.46251e-14)
(705.103 -6.68712e-14 6.67477e-14)
(710.937 -7.44923e-14 7.43681e-14)
(716.871 -5.14208e-14 5.13065e-14)
(722.908 -3.16963e-14 3.16149e-14)
(729.052 -1.82917e-14 1.82065e-14)
(735.308 -4.13551e-15 4.06374e-15)
(741.681 0 0)
(748.174 0 0)
(754.792 0 0)
(761.54 0 0)
(768.423 0 0)
(775.446 0 0)
(782.612 0 0)
(789.927 8.46293e-15 -8.46293e-15)
(797.395 8.90839e-15 -8.90839e-15)
(805.021 2.38045e-15 -2.38045e-15)
(812.806 -6.74637e-15 6.74637e-15)
(820.755 4.08855e-16 -4.08855e-16)
(828.868 0 0)
(837.159 -9.46514e-15 9.46514e-15)
(845.643 -5.83391e-15 5.83391e-15)
(854.291 -1.0093e-15 1.0093e-15)
(863.095 8.5223e-15 -8.51976e-15)
(872.041 1.35243e-14 -1.34853e-14)
(881.108 1.21676e-14 -1.21555e-14)
(890.258 8.80515e-15 -8.79073e-15)
(899.43 5.37033e-15 -5.35597e-15)
(908.524 -1.69193e-15 1.704e-15)
(917.381 -7.79208e-15 7.79748e-15)
(925.745 -1.466e-15 1.47108e-15)
(933.204 -6.76921e-15 6.7688e-15)
(939.095 -1.26295e-15 1.26495e-15)
(942.35 -9.60823e-16 9.88147e-16)
(941.239 -1.4241e-16 1.52189e-16)
(932.951 -7.53015e-16 7.57207e-16)
(912.923 -5.21009e-15 5.21732e-15)
(873.775 -5.65083e-15 5.65554e-15)
(803.845 -1.06248e-14 1.06322e-14)
(686.25 -1.97197e-14 1.97287e-14)
(506.304 -1.75236e-14 1.75373e-14)
(279.121 -1.11266e-14 1.11276e-14)
(89.5181 -3.68024e-15 3.68167e-15)
(14.7392 -2.5459e-16 2.5459e-16)
(1.71138 0 0)
(0.185095 0 0)
(0.0197633 0 0)
(0.00209644 2.08926e-15 -2.08926e-15)
(0.000221084 8.6644e-15 -8.6644e-15)
(2.31812e-05 1.78616e-15 -1.78616e-15)
(2.41681e-06 -2.83823e-15 2.83823e-15)
(2.50561e-07 -1.18062e-14 1.18062e-14)
(2.58323e-08 -7.65057e-15 7.65057e-15)
(2.63901e-09 -7.84093e-15 7.84093e-15)
(2.50441e-10 -1.23007e-14 1.23007e-14)
(1.06692e-11 -4.01631e-15 4.01631e-15)
(-3.84254e-12 0 0)
(-1.2178e-11 0 0)
(-7.02878e-12 0 0)
(8.54119e-12 0 0)
(7.71315e-12 0 0)
(-7.32455e-12 0 0)
(-2.1856e-11 0 0)
(-1.77505e-11 -2.85142e-15 2.85142e-15)
(-9.97225e-12 -9.6017e-15 9.6017e-15)
(-7.72733e-12 -4.62224e-15 4.62224e-15)
(6.58837e-13 1.62214e-15 -1.62214e-15)
(1.58268e-11 1.92998e-14 -1.92998e-14)
(1.36927e-11 2.54249e-14 -2.54249e-14)
(2.97684e-12 2.30713e-14 -2.30713e-14)
(2.10176e-13 9.53105e-15 -9.53105e-15)
(1.20316e-11 7.2252e-15 -7.2252e-15)
(2.01801e-11 8.47115e-15 -8.47115e-15)
(1.31548e-11 -1.23011e-15 1.23011e-15)
(5.70681e-13 -5.45988e-18 5.45988e-18)
(-8.56105e-12 0 0)
(-1.06705e-11 0 0)
(-1.50497e-11 0 0)
(-1.24633e-11 0 0)
(-8.81842e-12 0 0)
(-1.23521e-11 -1.70518e-15 1.70518e-15)
(-8.74718e-12 -6.81916e-15 6.81916e-15)
(-4.74151e-12 -1.70579e-15 1.70579e-15)
(-8.06946e-12 0 0)
(2.5192e-12 0 0)
(1.49189e-11 0 0)
(7.39426e-12 1.59264e-15 -1.59264e-15)
(-6.62911e-12 6.44027e-15 -6.44027e-15)
(-7.42379e-12 1.44942e-14 -1.44942e-14)
(-3.49284e-12 1.2831e-14 -1.2831e-14)
(-1.25267e-11 1.43735e-14 -1.43735e-14)
(-1.82093e-11 6.39223e-15 -6.39223e-15)
(-1.25188e-11 1.61693e-15 -1.61693e-15)
(-4.25246e-12 0 0)
(1.9032e-12 0 0)
(5.43518e-12 0 0)
(1.11568e-11 0 0)
(1.12369e-11 0 0)
(9.31919e-12 -1.48964e-15 1.48964e-15)
(5.88586e-12 -5.9559e-15 5.9559e-15)
(1.44907e-11 -1.48984e-15 1.48984e-15)
(3.20061e-11 0 0)
(3.11448e-11 0 0)
(8.10729e-12 0 0)
(-2.47078e-12 0 0)
(1.65696e-12 9.41209e-16 -9.41209e-16)
(1.76529e-12 4.71669e-15 -4.71669e-15)
(-2.10772e-12 0 0)
(-8.8758e-12 -4.65722e-15 4.65722e-15)
(-1.29907e-11 -9.34518e-16 9.34518e-16)
(-1.48745e-11 0 0)
(-6.55671e-12 0 0)
(5.44243e-12 -2.71616e-15 2.71616e-15)
(1.07001e-11 0 0)
(4.37733e-12 0 0)
(-1.89818e-12 1.78053e-15 -1.78053e-15)
(-2.09254e-12 -1.75559e-15 1.75559e-15)
(-7.01624e-12 0 0)
(1.81031e-12 0 0)
(1.1183e-11 1.73272e-15 -1.73272e-15)
(7.5539e-12 -1.70793e-15 1.70793e-15)
(7.34325e-12 0 0)
(7.41963e-12 0 0)
(3.83215e-12 0 0)
(-2.39095e-12 -2.50434e-15 2.50434e-15)
(-9.54464e-13 -7.65485e-19 7.65485e-19)
(5.20035e-12 -2.47233e-15 2.47233e-15)
(1.01795e-11 0 0)
(6.49808e-12 2.43847e-15 -2.43847e-15)
(-1.56313e-12 0 0)
(-3.72e-12 0 0)
(-3.40789e-12 0 0)
(-5.25286e-12 -4.74894e-15 4.74894e-15)
(-1.82244e-11 -4.73549e-15 4.73549e-15)
(-3.09404e-11 -1.60424e-17 1.60424e-17)
(-4.66307e-11 0 0)
(-4.08285e-11 0 0)
(-2.55465e-12 0 0)
(2.33282e-11 2.28552e-15 -2.28552e-15)
(2.50596e-11 0 0)
(1.30303e-11 0 0)
(2.37517e-11 -3.84066e-16 3.84066e-16)
(3.47594e-11 -5.23578e-15 5.23578e-15)
(2.03005e-11 -1.4499e-14 1.4499e-14)
(-2.83462e-12 -1.92872e-14 1.92872e-14)
(-7.71666e-12 -1.96615e-14 1.96615e-14)
(7.02157e-12 -1.5671e-14 1.5671e-14)
(1.11527e-11 -1.60378e-14 1.60378e-14)
(7.26477e-12 -1.20955e-14 1.20955e-14)
(6.6399e-12 -3.89607e-15 3.89607e-15)
(3.92433e-12 0 0)
(-6.47279e-12 0 0)
(-1.65985e-11 2.09356e-15 -2.09356e-15)
(-1.17913e-11 0 0)
(7.27727e-12 0 0)
(1.80594e-11 0 0)
(1.80612e-11 0 0)
(5.90466e-12 -4.06517e-15 4.06517e-15)
(-9.18347e-12 -4.05209e-15 4.05209e-15)
(-1.48792e-11 -1.27789e-17 1.27789e-17)
(-1.4828e-11 0 0)
(-1.75645e-11 0 0)
(-1.8351e-11 0 0)
(-1.74372e-11 0 0)
(-1.74214e-11 0 0)
(-6.13046e-12 -1.93842e-15 1.93842e-15)
(-7.50349e-13 0 0)
(-6.60496e-12 0 0)
(-9.04434e-12 1.90621e-15 -1.90621e-15)
(3.95702e-12 2.80426e-18 -2.80426e-18)
(1.80598e-11 1.88314e-15 -1.88314e-15)
(1.15391e-11 0 0)
(4.94813e-14 -3.09647e-15 3.09647e-15)
(-2.30663e-12 -2.46339e-15 2.46339e-15)
(1.59506e-12 -5.5234e-15 5.5234e-15)
(-8.18562e-12 -4.89395e-15 4.89395e-15)
(-5.70495e-12 -6.22279e-16 6.22279e-16)
(9.14849e-12 0 0)
(1.1997e-11 0 0)
(9.12855e-12 1.78879e-15 -1.78879e-15)
(5.56304e-12 0 0)
(2.28021e-12 -4.24133e-15 4.24133e-15)
(-1.95166e-12 -4.93036e-15 4.93036e-15)
(-8.54535e-12 -2.10969e-15 2.10969e-15)
(-1.57959e-11 -2.79137e-15 2.79137e-15)
(-1.58003e-11 0 0)
(-8.93901e-12 0 0)
(3.57329e-12 -1.71172e-15 1.71172e-15)
(4.89785e-12 -2.01632e-18 2.01632e-18)
(6.94194e-12 -1.69185e-15 1.69185e-15)
(4.33164e-12 0 0)
(-9.43463e-12 1.67406e-15 -1.67406e-15)
(-1.44381e-11 0 0)
(-4.5893e-12 0 0)
(-8.46565e-13 -7.98715e-16 7.98715e-16)
(-8.587e-12 -4.87663e-15 4.87663e-15)
(-4.59786e-12 -5.66569e-15 5.66569e-15)
(2.68725e-12 -9.69889e-15 9.69889e-15)
(6.09833e-12 -1.04785e-14 1.04785e-14)
(-5.34241e-13 -8.03871e-15 8.03871e-15)
(-7.69926e-12 -2.4142e-15 2.4142e-15)
(-4.63513e-12 0 0)
(-4.22294e-12 0 0)
(-3.13703e-12 1.57111e-15 -1.57111e-15)
(-7.14903e-12 2.71733e-18 -2.71733e-18)
(-1.43816e-11 1.5546e-15 -1.5546e-15)
(-1.17457e-11 0 0)
(-9.47197e-12 0 0)
(-2.60173e-12 -1.52905e-15 1.52905e-15)
(1.08977e-12 0 0)
(2.32279e-13 0 0)
(4.21069e-12 0 0)
(6.4786e-12 2.99651e-15 -2.99651e-15)
(9.03238e-13 2.98897e-15 -2.98897e-15)
(1.25003e-12 8.73602e-18 -8.73602e-18)
(1.15509e-11 0 0)
(4.52696e-12 0 0)
(-7.09828e-12 1.45906e-15 -1.45906e-15)
(-1.26931e-11 0 0)
(-1.27153e-11 0 0)
(-2.20003e-12 0 0)
(3.73641e-12 0 0)
(-1.23752e-12 0 0)
(-3.1921e-12 0 0)
(1.83145e-12 0 0)
(7.40668e-12 0 0)
(1.3812e-11 5.95217e-16 -5.95217e-16)
(1.57755e-11 3.972e-15 -3.972e-15)
(1.12436e-11 1.00997e-14 -1.00997e-14)
(1.01085e-11 1.34426e-14 -1.34426e-14)
(1.36574e-11 1.40242e-14 -1.40242e-14)
(1.34268e-11 6.41726e-15 -6.41726e-15)
(2.46593e-12 1.56197e-15 -1.56197e-15)
(-4.60026e-12 -5.68904e-16 5.68904e-16)
(-4.06076e-12 0 0)
(-5.57892e-12 0 0)
(-5.49443e-12 0 0)
(-6.52905e-12 0 0)
(-1.49847e-12 0 0)
(2.04443e-12 0 0)
(-2.78764e-13 0 0)
(-4.61257e-13 0 0)
(4.6355e-12 -8.61328e-16 8.61328e-16)
(1.95376e-11 8.54875e-16 -8.54875e-16)
(2.60248e-11 0 0)
(2.06935e-11 0 0)
(1.30178e-11 -1.26738e-15 1.26738e-15)
(7.63404e-12 -1.79693e-18 1.79693e-18)
(3.51462e-12 -1.25622e-15 1.25622e-15)
(-2.38827e-12 -1.53986e-18 1.53986e-18)
(-2.03812e-12 -1.24354e-15 1.24354e-15)
(-1.2475e-12 0 0)
(-5.50263e-12 -8.23066e-16 8.23066e-16)
(1.17383e-12 8.14992e-16 -8.14992e-16)
(5.64706e-12 0 0)
(-1.57016e-11 1.2137e-15 -1.2137e-15)
(-2.07792e-11 -6.15832e-19 6.15832e-19)
(-1.29612e-11 1.20269e-15 -1.20269e-15)
(-7.70044e-12 0 0)
(2.71619e-12 7.96138e-16 -7.96138e-16)
(7.4909e-12 -7.89788e-16 7.89788e-16)
(1.21375e-12 0 0)
(-3.96675e-12 -9.22231e-16 9.22231e-16)
(-4.73207e-12 -4.1856e-15 4.1856e-15)
(-1.13253e-11 -9.76832e-15 9.76832e-15)
(-7.94486e-12 -8.35214e-15 8.35214e-15)
(1.36127e-11 0 0)
(8.18952e-12 8.27227e-15 -8.27227e-15)
(-1.33503e-11 9.62667e-15 -9.62667e-15)
(-1.33187e-11 4.1287e-15 -4.1287e-15)
(-1.07808e-11 9.26006e-16 -9.26006e-16)
(5.0077e-12 0 0)
(3.12014e-11 9.53667e-16 -9.53667e-16)
(3.39685e-11 4.14527e-15 -4.14527e-15)
(1.41075e-11 6.24716e-16 -6.24716e-16)
(1.50474e-11 -1.61096e-15 1.61096e-15)
(2.0382e-11 -6.04844e-15 6.04844e-15)
(1.05591e-11 -3.85859e-15 3.85859e-15)
(6.22148e-12 -3.87056e-15 3.87056e-15)
(-2.76735e-12 -6.06594e-15 6.06594e-15)
(-7.95842e-12 -1.04254e-14 1.04254e-14)
(-6.88497e-12 -1.69292e-14 1.69292e-14)
(-6.68993e-12 -2.55423e-14 2.55423e-14)
(-1.25911e-12 -2.76987e-14 2.76987e-14)
(-6.79845e-13 -2.75617e-14 2.75617e-14)
(-2.55868e-13 -2.47066e-14 2.47066e-14)
(-5.07436e-12 -1.55654e-14 1.55654e-14)
(-1.23575e-11 -8.49796e-15 8.49796e-15)
(-8.61073e-12 -3.55989e-15 3.55989e-15)
(-5.6912e-12 -7.332e-16 7.332e-16)
(7.07366e-13 0 0)
(1.39305e-11 0 0)
(5.56755e-12 0 0)
(-6.86172e-12 0 0)
(-1.5447e-11 0 0)
(-1.19919e-11 6.73757e-16 -6.73757e-16)
(4.06832e-12 3.28877e-15 -3.28877e-15)
(2.46949e-12 -1.67987e-16 1.67987e-16)
(-5.86124e-12 -5.62138e-15 5.62138e-15)
(-3.67294e-12 -5.04212e-15 5.04212e-15)
(1.23683e-11 -6.45895e-15 6.45895e-15)
(2.20716e-11 -1.91042e-15 1.91042e-15)
(1.21562e-11 6.41744e-16 -6.41744e-16)
(-6.99576e-12 3.70583e-15 -3.70583e-15)
(-2.15912e-11 8.70114e-16 -8.70114e-16)
(-2.33125e-11 0 0)
(-1.38326e-11 0 0)
(-1.83342e-11 -3.29883e-16 3.29883e-16)
(-2.40041e-11 -2.58757e-15 2.58757e-15)
(-5.39502e-12 -6.75611e-15 6.75611e-15)
(6.71309e-12 -5.16588e-15 5.16588e-15)
(5.90937e-12 -9.30148e-15 9.30148e-15)
(-2.90463e-12 -1.53165e-14 1.53165e-14)
(-1.80602e-11 -2.31685e-14 2.31685e-14)
(-1.3905e-11 -2.53611e-14 2.53611e-14)
(1.03072e-12 -2.35069e-14 2.35069e-14)
(1.59628e-11 -1.60566e-14 1.60566e-14)
(1.9409e-11 -1.0479e-14 1.0479e-14)
(1.3972e-11 -6.77609e-15 6.77609e-15)
(2.26617e-11 -4.93269e-15 4.93269e-15)
(1.93885e-11 -4.93379e-15 4.93379e-15)
(1.26584e-11 -6.76468e-15 6.76468e-15)
(7.25695e-12 -3.11933e-15 3.11933e-15)
(-2.07561e-12 -1.30398e-15 1.30398e-15)
)
;

boundaryField
{
    wedge0
    {
        type            wedge;
    }
    wedge1
    {
        type            wedge;
    }
    wedge2
    {
        type            wedge;
    }
    wedge3
    {
        type            wedge;
    }
    outlet
    {
        type            zeroGradient;
    }
    defaultFaces
    {
        type            empty;
    }
}


// ************************************************************************* //
