/*--------------------------------*- C++ -*----------------------------------*\
| =========                 |                                                 |
| \\      /  F ield         | OpenFOAM: The Open Source CFD Toolbox           |
|  \\    /   O peration     | Version:  2312                                  |
|   \\  /    A nd           | Website:  www.openfoam.com                      |
|    \\/     M anipulation  |                                                 |
\*---------------------------------------------------------------------------*/
FoamFile
{
    version     2.0;
    format      ascii;
    arch        "LSB;label=32;scalar=64";
    class       volScalarField;
    location    "0.002";
    object      p;
}
// * * * * * * * * * * * * * * * * * * * * * * * * * * * * * * * * * * * * * //

dimensions      [1 -1 -2 0 0 0 0];

internalField   nonuniform List<scalar> 
100
(
100207
100207
100207
100207
100207
100207
100207
100207
100207
100207
100207
100207
100207
100207
100207
100207
100207
100207
100207
100207
100207
100207
100207
100207
100207
100207
100207
100207
100207
100207
100207
100207
100206
100203
100193
100161
100065
99815.5
99244.9
98093.7
96048.5
92835.4
88333
82636.2
75997.1
68936.8
61183.4
55185.4
46453.1
42080.1
37018.4
32001.9
29138
28282.5
28402.4
28690.3
28907.8
29076.8
28874.8
27140
22897.3
17355.8
13051.8
10959.9
10261.7
10076.2
10032.5
10023
10021.1
10020.8
10020.7
10020.7
10020.7
10020.7
10020.7
10020.7
10020.7
10020.7
10020.7
10020.7
10020.7
10020.7
10020.7
10020.7
10020.7
10020.7
10020.7
10020.7
10020.7
10020.7
10020.7
10020.7
10020.7
10020.7
10020.7
10020.7
10020.7
10020.7
10020.7
10020.7
)
;

boundaryField
{
    sides
    {
        type            zeroGradient;
    }
    empty
    {
        type            empty;
    }
}


// ************************************************************************* //
