/*--------------------------------*- C++ -*----------------------------------*\
| =========                 |                                                 |
| \\      /  F ield         | OpenFOAM: The Open Source CFD Toolbox           |
|  \\    /   O peration     | Version:  2312                                  |
|   \\  /    A nd           | Website:  www.openfoam.com                      |
|    \\/     M anipulation  |                                                 |
\*---------------------------------------------------------------------------*/
FoamFile
{
    version     2.0;
    format      ascii;
    arch        "LSB;label=32;scalar=64";
    class       volScalarField;
    location    "0.002";
    object      thermo:e;
}
// * * * * * * * * * * * * * * * * * * * * * * * * * * * * * * * * * * * * * //

dimensions      [0 2 -2 0 0 0 0];

internalField   nonuniform List<scalar> 
100
(
215760
215760
215760
215760
215760
215760
215760
215760
215760
215760
215760
215760
215760
215760
215760
215760
215760
215760
215760
215760
215760
215760
215760
215760
215760
215760
215760
215760
215760
215760
215760
215760
215760
215759
215754
215740
215697
215582
215310
214743
213695
211974
209432
206021
201739
197040
190393
188432
174396
175991
173574
160571
149951
155644
180510
217112
253346
279538
291543
288386
271760
248564
229389
219851
216776
215990
215808
215769
215762
215760
215760
215760
215760
215760
215760
215760
215760
215760
215760
215760
215760
215760
215760
215760
215760
215760
215760
215760
215760
215760
215760
215760
215760
215760
215760
215760
215760
215760
215760
215760
)
;

boundaryField
{
    sides
    {
        type            zeroGradient;
    }
    empty
    {
        type            empty;
    }
}


// ************************************************************************* //
