/*--------------------------------*- C++ -*----------------------------------*\
| =========                 |                                                 |
| \\      /  F ield         | OpenFOAM: The Open Source CFD Toolbox           |
|  \\    /   O peration     | Version:  2312                                  |
|   \\  /    A nd           | Website:  www.openfoam.com                      |
|    \\/     M anipulation  |                                                 |
\*---------------------------------------------------------------------------*/
FoamFile
{
    version     2.0;
    format      ascii;
    arch        "LSB;label=32;scalar=64";
    class       volVectorField;
    location    "0.002";
    object      U;
}
// * * * * * * * * * * * * * * * * * * * * * * * * * * * * * * * * * * * * * //

dimensions      [0 1 -1 0 0 0 0];

internalField   nonuniform List<vector> 
100
(
(4.56282e-14 0 0)
(7.17683e-14 0 0)
(1.02379e-13 0 0)
(4.75432e-14 0 0)
(1.85446e-14 0 0)
(3.6298e-14 0 0)
(3.2913e-14 0 0)
(8.65564e-14 0 0)
(-9.08513e-15 0 0)
(1.90225e-15 0 0)
(3.56717e-14 0 0)
(3.0236e-14 0 0)
(4.9245e-15 0 0)
(-9.04157e-15 0 0)
(3.84876e-14 0 0)
(2.2923e-14 0 0)
(-3.43676e-14 0 0)
(-1.80015e-14 0 0)
(-9.21643e-15 0 0)
(2.19595e-14 0 0)
(5.41543e-15 0 0)
(1.1519e-13 0 0)
(2.39408e-12 0 0)
(3.26312e-11 0 0)
(3.86053e-10 0 0)
(4.02805e-09 0 0)
(3.72459e-08 0 0)
(3.06379e-07 0 0)
(2.24903e-06 0 0)
(1.47688e-05 0 0)
(8.69123e-05 0 0)
(0.000458904 0 0)
(0.00217541 0 0)
(0.00925936 0 0)
(0.0353716 0 0)
(0.121167 0 0)
(0.371768 0 0)
(1.02064 0 0)
(2.50664 0 0)
(5.51573 0 0)
(10.9196 0 0)
(19.589 0 0)
(32.156 0 0)
(48.8642 0 0)
(69.5023 0 0)
(93.9048 0 0)
(120.191 0 0)
(151.34 0 0)
(180.415 0 0)
(207.863 0 0)
(243.296 0 0)
(269.146 0 0)
(273.569 0 0)
(266.271 0 0)
(260.769 0 0)
(262.728 0 0)
(270.976 0 0)
(280.886 0 0)
(284.333 0 0)
(268.066 0 0)
(220.851 0 0)
(146.307 0 0)
(70.422 0 0)
(23.8015 0 0)
(6.29037 0 0)
(1.46103 0 0)
(0.312031 0 0)
(0.0617227 0 0)
(0.0112718 0 0)
(0.00189077 0 0)
(0.000289901 0 0)
(4.04426e-05 0 0)
(5.11086e-06 0 0)
(5.82469e-07 0 0)
(5.95806e-08 0 0)
(5.44117e-09 0 0)
(4.40997e-10 0 0)
(3.15278e-11 0 0)
(2.00018e-12 0 0)
(7.01349e-14 0 0)
(-8.26828e-14 0 0)
(7.22809e-14 0 0)
(4.31194e-14 0 0)
(3.53874e-14 0 0)
(-6.81048e-14 0 0)
(-9.18988e-14 0 0)
(5.36304e-14 0 0)
(2.33682e-14 0 0)
(2.43537e-14 0 0)
(-5.19682e-14 0 0)
(-4.89607e-14 0 0)
(8.10429e-14 0 0)
(4.40318e-14 0 0)
(-1.14762e-14 0 0)
(1.26976e-13 0 0)
(1.83458e-13 0 0)
(2.22152e-13 0 0)
(1.46417e-13 0 0)
(1.03564e-13 0 0)
(1.3957e-13 0 0)
)
;

boundaryField
{
    sides
    {
        type            mywaveTransmissive;
        gamma           1.4;
        value           nonuniform List<vector> 2((1.46036e-13 0 0) (4.49712e-14 0 0));
    }
    empty
    {
        type            empty;
    }
}


// ************************************************************************* //
