/*--------------------------------*- C++ -*----------------------------------*\
| =========                 |                                                 |
| \\      /  F ield         | OpenFOAM: The Open Source CFD Toolbox           |
|  \\    /   O peration     | Version:  2312                                  |
|   \\  /    A nd           | Website:  www.openfoam.com                      |
|    \\/     M anipulation  |                                                 |
\*---------------------------------------------------------------------------*/
FoamFile
{
    version     2.0;
    format      ascii;
    arch        "LSB;label=32;scalar=64";
    class       volScalarField;
    location    "0.0006";
    object      p;
}
// * * * * * * * * * * * * * * * * * * * * * * * * * * * * * * * * * * * * * //

dimensions      [1 -1 -2 0 0 0 0];

internalField   nonuniform List<scalar> 
100
(
6.29155e+08
6.29158e+08
6.29161e+08
6.29164e+08
6.29168e+08
6.29171e+08
6.29175e+08
6.29179e+08
6.29183e+08
6.29187e+08
6.29192e+08
6.29196e+08
6.29201e+08
6.29206e+08
6.29211e+08
6.29216e+08
6.29221e+08
6.29227e+08
6.29232e+08
6.29238e+08
6.29244e+08
6.2925e+08
6.29257e+08
6.29263e+08
6.2927e+08
6.29276e+08
6.29283e+08
6.2929e+08
6.29297e+08
6.29304e+08
6.29311e+08
6.29319e+08
6.29326e+08
6.29333e+08
6.2934e+08
6.29348e+08
6.29355e+08
6.29362e+08
6.29369e+08
6.29377e+08
6.29384e+08
6.29391e+08
6.29398e+08
6.29404e+08
6.29411e+08
6.29417e+08
6.29424e+08
6.2943e+08
6.29436e+08
6.29442e+08
6.29447e+08
6.29453e+08
6.29458e+08
6.29463e+08
6.29468e+08
6.29472e+08
6.29476e+08
6.29481e+08
6.29485e+08
6.29488e+08
6.29492e+08
6.29495e+08
6.29498e+08
6.29501e+08
6.29504e+08
6.29507e+08
6.29509e+08
6.29511e+08
6.29513e+08
6.29515e+08
6.29517e+08
6.29519e+08
6.2952e+08
6.29522e+08
6.29523e+08
6.29524e+08
6.29525e+08
6.29526e+08
6.29527e+08
6.29528e+08
6.29528e+08
6.29529e+08
6.2953e+08
6.2953e+08
6.29531e+08
6.29531e+08
6.29532e+08
6.29532e+08
6.29533e+08
6.29533e+08
6.29534e+08
6.29534e+08
6.29535e+08
6.29536e+08
6.29536e+08
6.29538e+08
6.29539e+08
6.2954e+08
6.29542e+08
6.29544e+08
)
;

boundaryField
{
    sides
    {
        type            zeroGradient;
    }
    empty
    {
        type            empty;
    }
}


// ************************************************************************* //
