/*--------------------------------*- C++ -*----------------------------------*\
| =========                 |                                                 |
| \\      /  F ield         | OpenFOAM: The Open Source CFD Toolbox           |
|  \\    /   O peration     | Version:  2312                                  |
|   \\  /    A nd           | Website:  www.openfoam.com                      |
|    \\/     M anipulation  |                                                 |
\*---------------------------------------------------------------------------*/
FoamFile
{
    version     2.0;
    format      ascii;
    arch        "LSB;label=32;scalar=64";
    class       volScalarField;
    location    "0.0006";
    object      rho;
}
// * * * * * * * * * * * * * * * * * * * * * * * * * * * * * * * * * * * * * //

dimensions      [1 -3 0 0 0 0 0];

internalField   nonuniform List<scalar> 
100
(
0.0963629
0.0963634
0.0963638
0.0963643
0.0963649
0.0963654
0.096366
0.0963666
0.0963672
0.0963678
0.0963685
0.0963692
0.0963699
0.0963707
0.0963714
0.0963722
0.096373
0.0963739
0.0963747
0.0963756
0.0963766
0.0963775
0.0963785
0.0963795
0.0963805
0.0963815
0.0963825
0.0963836
0.0963847
0.0963857
0.0963868
0.0963879
0.0963891
0.0963902
0.0963913
0.0963924
0.0963935
0.0963946
0.0963957
0.0963968
0.0963979
0.096399
0.0964
0.0964011
0.0964021
0.0964031
0.096404
0.096405
0.0964059
0.0964068
0.0964076
0.0964085
0.0964093
0.09641
0.0964108
0.0964115
0.0964121
0.0964128
0.0964134
0.0964139
0.0964145
0.096415
0.0964155
0.0964159
0.0964163
0.0964167
0.0964171
0.0964175
0.0964178
0.0964181
0.0964183
0.0964186
0.0964188
0.096419
0.0964192
0.0964194
0.0964196
0.0964197
0.0964199
0.09642
0.0964201
0.0964202
0.0964203
0.0964204
0.0964205
0.0964205
0.0964206
0.0964207
0.0964207
0.0964208
0.0964209
0.096421
0.0964211
0.0964212
0.0964213
0.0964215
0.0964217
0.0964219
0.0964222
0.0964225
)
;

boundaryField
{
    sides
    {
        type            zeroGradient;
    }
    empty
    {
        type            empty;
    }
}


// ************************************************************************* //
