/*--------------------------------*- C++ -*----------------------------------*\
| =========                 |                                                 |
| \\      /  F ield         | OpenFOAM: The Open Source CFD Toolbox           |
|  \\    /   O peration     | Version:  2312                                  |
|   \\  /    A nd           | Website:  www.openfoam.com                      |
|    \\/     M anipulation  |                                                 |
\*---------------------------------------------------------------------------*/
FoamFile
{
    version     2.0;
    format      ascii;
    arch        "LSB;label=32;scalar=64";
    class       volScalarField;
    location    "0.0006";
    object      thermo:e;
}
// * * * * * * * * * * * * * * * * * * * * * * * * * * * * * * * * * * * * * //

dimensions      [0 2 -2 0 0 0 0];

internalField   nonuniform List<scalar> 
100
(
3.746e+10
3.7584e+10
3.77988e+10
3.80787e+10
3.84037e+10
3.87585e+10
3.91313e+10
3.95128e+10
3.98963e+10
4.02766e+10
4.06498e+10
4.1013e+10
4.13642e+10
4.1702e+10
4.20254e+10
4.23338e+10
4.2627e+10
4.29048e+10
4.31676e+10
4.34153e+10
4.36485e+10
4.38675e+10
4.40728e+10
4.4265e+10
4.44444e+10
4.46118e+10
4.47677e+10
4.49125e+10
4.5047e+10
4.51717e+10
4.5287e+10
4.53936e+10
4.5492e+10
4.55826e+10
4.5666e+10
4.57426e+10
4.58128e+10
4.58772e+10
4.59361e+10
4.59898e+10
4.60389e+10
4.60836e+10
4.61242e+10
4.61611e+10
4.61946e+10
4.62249e+10
4.62523e+10
4.6277e+10
4.62993e+10
4.63194e+10
4.63375e+10
4.63537e+10
4.63682e+10
4.63812e+10
4.63929e+10
4.64032e+10
4.64125e+10
4.64207e+10
4.6428e+10
4.64345e+10
4.64402e+10
4.64453e+10
4.64497e+10
4.64537e+10
4.64571e+10
4.64602e+10
4.64629e+10
4.64652e+10
4.64672e+10
4.6469e+10
4.64705e+10
4.64719e+10
4.6473e+10
4.6474e+10
4.64749e+10
4.64757e+10
4.64763e+10
4.64768e+10
4.64773e+10
4.64777e+10
4.6478e+10
4.64783e+10
4.64786e+10
4.64788e+10
4.64789e+10
4.64791e+10
4.64792e+10
4.64793e+10
4.64794e+10
4.64794e+10
4.64795e+10
4.64795e+10
4.64796e+10
4.64796e+10
4.64796e+10
4.64796e+10
4.64797e+10
4.64797e+10
4.64797e+10
4.64797e+10
)
;

boundaryField
{
    sides
    {
        type            zeroGradient;
    }
    empty
    {
        type            empty;
    }
}


// ************************************************************************* //
