/*--------------------------------*- C++ -*----------------------------------*\
| =========                 |                                                 |
| \\      /  F ield         | OpenFOAM: The Open Source CFD Toolbox           |
|  \\    /   O peration     | Version:  2312                                  |
|   \\  /    A nd           | Website:  www.openfoam.com                      |
|    \\/     M anipulation  |                                                 |
\*---------------------------------------------------------------------------*/
FoamFile
{
    version     2.0;
    format      ascii;
    arch        "LSB;label=32;scalar=64";
    class       volVectorField;
    location    "0.0006";
    object      U;
}
// * * * * * * * * * * * * * * * * * * * * * * * * * * * * * * * * * * * * * //

dimensions      [0 1 -1 0 0 0 0];

internalField   nonuniform List<vector> 
100
(
(-15299.4 0 0)
(-15299.8 0 0)
(-15300.2 0 0)
(-15300.7 0 0)
(-15301.1 0 0)
(-15301.6 0 0)
(-15302.1 0 0)
(-15302.6 0 0)
(-15303.2 0 0)
(-15303.7 0 0)
(-15304.3 0 0)
(-15304.9 0 0)
(-15305.5 0 0)
(-15306.1 0 0)
(-15306.8 0 0)
(-15307.5 0 0)
(-15308.2 0 0)
(-15308.9 0 0)
(-15309.6 0 0)
(-15310.4 0 0)
(-15311.2 0 0)
(-15312 0 0)
(-15312.8 0 0)
(-15313.6 0 0)
(-15314.5 0 0)
(-15315.4 0 0)
(-15316.2 0 0)
(-15317.1 0 0)
(-15318 0 0)
(-15319 0 0)
(-15319.9 0 0)
(-15320.8 0 0)
(-15321.8 0 0)
(-15322.7 0 0)
(-15323.7 0 0)
(-15324.6 0 0)
(-15325.6 0 0)
(-15326.5 0 0)
(-15327.4 0 0)
(-15328.4 0 0)
(-15329.3 0 0)
(-15330.2 0 0)
(-15331.1 0 0)
(-15331.9 0 0)
(-15332.8 0 0)
(-15333.6 0 0)
(-15334.4 0 0)
(-15335.2 0 0)
(-15336 0 0)
(-15336.7 0 0)
(-15337.4 0 0)
(-15338.1 0 0)
(-15338.8 0 0)
(-15339.4 0 0)
(-15340 0 0)
(-15340.6 0 0)
(-15341.2 0 0)
(-15341.7 0 0)
(-15342.2 0 0)
(-15342.7 0 0)
(-15343.1 0 0)
(-15343.5 0 0)
(-15343.9 0 0)
(-15344.3 0 0)
(-15344.6 0 0)
(-15344.9 0 0)
(-15345.2 0 0)
(-15345.5 0 0)
(-15345.7 0 0)
(-15345.9 0 0)
(-15346.2 0 0)
(-15346.3 0 0)
(-15346.5 0 0)
(-15346.7 0 0)
(-15346.8 0 0)
(-15347 0 0)
(-15347.1 0 0)
(-15347.2 0 0)
(-15347.3 0 0)
(-15347.4 0 0)
(-15347.4 0 0)
(-15347.5 0 0)
(-15347.6 0 0)
(-15347.6 0 0)
(-15347.7 0 0)
(-15347.7 0 0)
(-15347.7 0 0)
(-15347.7 0 0)
(-15347.8 0 0)
(-15347.8 0 0)
(-15347.8 0 0)
(-15347.7 0 0)
(-15347.7 0 0)
(-15347.6 0 0)
(-15347.6 0 0)
(-15347.4 0 0)
(-15347.3 0 0)
(-15347.1 0 0)
(-15346.9 0 0)
(-15346.7 0 0)
)
;

boundaryField
{
    sides
    {
        type            zeroGradient;
    }
    empty
    {
        type            empty;
    }
}


// ************************************************************************* //
