/*--------------------------------*- C++ -*----------------------------------*\
| =========                 |                                                 |
| \\      /  F ield         | OpenFOAM: The Open Source CFD Toolbox           |
|  \\    /   O peration     | Version:  2312                                  |
|   \\  /    A nd           | Website:  www.openfoam.com                      |
|    \\/     M anipulation  |                                                 |
\*---------------------------------------------------------------------------*/
FoamFile
{
    version     2.0;
    format      ascii;
    arch        "LSB;label=32;scalar=64";
    class       volScalarField;
    location    "0.006";
    object      p;
}
// * * * * * * * * * * * * * * * * * * * * * * * * * * * * * * * * * * * * * //

dimensions      [1 -1 -2 0 0 0 0];

internalField   nonuniform List<scalar> 
100
(
100207
100207
100207
100207
100207
100207
100207
100207
100207
100207
100207
100207
100207
100207
100207
100207
100207
100207
100207
100207
100206
100203
100193
100166
100096
99922.6
99537.7
98763.7
97369.8
95138.3
91971.7
87969.1
83396.3
78561.7
73855.9
69503.9
65478.9
61736.6
58240.8
54961.3
51879.8
48979.6
46246.4
43667.9
41231.9
38933.3
36790
34812
33092.6
31408.4
30105.2
29211
28572.1
28185
28013.6
28047.2
28293.8
28442.5
28482.1
28491.9
28487.9
28489
28515.1
28534.1
28568.5
28472.2
28664.6
27905.2
29198.9
28079.2
28800.3
28454.8
28611.5
28551.2
28590
28590.6
28592.1
28566.4
28532.1
28517.1
28502.1
28397
27185.3
19121.3
11110.6
10111.6
10028.1
10021.3
10020.7
10020.7
10020.7
10020.7
10020.7
10020.7
10020.7
10020.7
10020.7
10020.7
10020.7
10020.7
)
;

boundaryField
{
    sides
    {
        type            zeroGradient;
    }
    empty
    {
        type            empty;
    }
}


// ************************************************************************* //
