/*--------------------------------*- C++ -*----------------------------------*\
| =========                 |                                                 |
| \\      /  F ield         | OpenFOAM: The Open Source CFD Toolbox           |
|  \\    /   O peration     | Version:  2312                                  |
|   \\  /    A nd           | Website:  www.openfoam.com                      |
|    \\/     M anipulation  |                                                 |
\*---------------------------------------------------------------------------*/
FoamFile
{
    version     2.0;
    format      ascii;
    arch        "LSB;label=32;scalar=64";
    class       volScalarField;
    location    "0.006";
    object      rho;
}
// * * * * * * * * * * * * * * * * * * * * * * * * * * * * * * * * * * * * * //

dimensions      [1 -3 0 0 0 0 0];

internalField   nonuniform List<scalar> 
100
(
1.16102
1.16102
1.16102
1.16102
1.16102
1.16102
1.16102
1.16102
1.16102
1.16102
1.16102
1.16102
1.16102
1.16102
1.16102
1.16102
1.16102
1.16102
1.16102
1.16102
1.16101
1.16098
1.16091
1.16069
1.1601
1.15867
1.15548
1.14905
1.13744
1.11877
1.09206
1.05795
1.01845
0.975948
0.933842
0.894279
0.857038
0.821815
0.78835
0.756424
0.725921
0.696732
0.668763
0.641932
0.616153
0.591434
0.56806
0.546147
0.526657
0.50704
0.491756
0.482508
0.475893
0.469864
0.466529
0.466354
0.469253
0.472232
0.474284
0.474943
0.474578
0.472836
0.468408
0.45881
0.441537
0.412187
0.373683
0.318588
0.285669
0.253582
0.246303
0.238851
0.237495
0.2363
0.236302
0.236306
0.236408
0.236451
0.236497
0.236629
0.236726
0.236252
0.229124
0.177804
0.124346
0.116836
0.116163
0.116107
0.116102
0.116102
0.116102
0.116102
0.116102
0.116102
0.116102
0.116102
0.116102
0.116102
0.116102
0.116102
)
;

boundaryField
{
    sides
    {
        type            zeroGradient;
    }
    empty
    {
        type            empty;
    }
}


// ************************************************************************* //
