/*--------------------------------*- C++ -*----------------------------------*\
| =========                 |                                                 |
| \\      /  F ield         | OpenFOAM: The Open Source CFD Toolbox           |
|  \\    /   O peration     | Version:  2312                                  |
|   \\  /    A nd           | Website:  www.openfoam.com                      |
|    \\/     M anipulation  |                                                 |
\*---------------------------------------------------------------------------*/
FoamFile
{
    version     2.0;
    format      ascii;
    arch        "LSB;label=32;scalar=64";
    class       volScalarField;
    location    "0.006";
    object      T;
}
// * * * * * * * * * * * * * * * * * * * * * * * * * * * * * * * * * * * * * //

dimensions      [0 0 0 1 0 0 0];

internalField   nonuniform List<scalar> 
100
(
300
300
300
300
300
300
300
300
300
300
300
300
300
300
300
300
300
300
300
300
299.999
299.996
299.988
299.965
299.905
299.757
299.426
298.759
297.549
295.582
292.731
289.02
284.625
279.8
274.9
270.147
265.561
261.115
256.786
252.554
248.412
244.35
240.364
236.449
232.599
228.811
225.112
221.556
218.407
215.311
212.792
210.429
208.688
208.502
208.715
209.043
209.579
209.351
208.736
208.518
208.649
209.425
211.599
216.169
224.897
240.099
266.628
304.452
355.276
384.884
406.435
414.088
418.744
419.975
420.542
420.544
420.384
419.931
419.345
418.892
418.499
417.792
412.408
373.801
310.576
300.819
300.064
300.005
300
300
300
300
300
300
300
300
300
300
300
300
)
;

boundaryField
{
    sides
    {
        type            zeroGradient;
    }
    empty
    {
        type            empty;
    }
}


// ************************************************************************* //
