/*--------------------------------*- C++ -*----------------------------------*\
| =========                 |                                                 |
| \\      /  F ield         | OpenFOAM: The Open Source CFD Toolbox           |
|  \\    /   O peration     | Version:  2312                                  |
|   \\  /    A nd           | Website:  www.openfoam.com                      |
|    \\/     M anipulation  |                                                 |
\*---------------------------------------------------------------------------*/
FoamFile
{
    version     2.0;
    format      ascii;
    arch        "LSB;label=32;scalar=64";
    class       volVectorField;
    location    "0.006";
    object      U;
}
// * * * * * * * * * * * * * * * * * * * * * * * * * * * * * * * * * * * * * //

dimensions      [0 1 -1 0 0 0 0];

internalField   nonuniform List<vector> 
100
(
(9.12449e-14 0 0)
(6.79987e-14 0 0)
(2.19319e-14 0 0)
(9.93785e-15 0 0)
(8.14164e-14 0 0)
(1.80584e-13 0 0)
(7.70142e-13 0 0)
(4.66798e-12 0 0)
(2.94072e-11 0 0)
(1.78674e-10 0 0)
(1.03897e-09 0 0)
(5.78135e-09 0 0)
(3.07684e-08 0 0)
(1.56474e-07 0 0)
(7.59572e-07 0 0)
(3.51534e-06 0 0)
(1.54899e-05 0 0)
(6.48862e-05 0 0)
(0.000257941 0 0)
(0.000971153 0 0)
(0.00345501 0 0)
(0.0115833 0 0)
(0.0364801 0 0)
(0.10752 0 0)
(0.295263 0 0)
(0.751679 0 0)
(1.76437 0 0)
(3.79834 0 0)
(7.46865 0 0)
(13.3895 0 0)
(21.9235 0 0)
(32.9821 0 0)
(46.0649 0 0)
(60.5012 0 0)
(74.976 0 0)
(89.2252 0 0)
(103.129 0 0)
(116.769 0 0)
(130.192 0 0)
(143.425 0 0)
(156.499 0 0)
(169.432 0 0)
(182.237 0 0)
(194.932 0 0)
(207.525 0 0)
(219.963 0 0)
(232.09 0 0)
(243.809 0 0)
(255.338 0 0)
(264.871 0 0)
(273.954 0 0)
(281.822 0 0)
(286.503 0 0)
(287.943 0 0)
(288.426 0 0)
(288.746 0 0)
(287.355 0 0)
(286.994 0 0)
(286.823 0 0)
(286.517 0 0)
(286.1 0 0)
(285.916 0 0)
(285.8 0 0)
(285.979 0 0)
(286.111 0 0)
(287.723 0 0)
(285.65 0 0)
(289.642 0 0)
(280.772 0 0)
(288.866 0 0)
(284.188 0 0)
(286.842 0 0)
(285.856 0 0)
(286.415 0 0)
(286.195 0 0)
(286.137 0 0)
(285.973 0 0)
(285.78 0 0)
(285.599 0 0)
(285.584 0 0)
(285.444 0 0)
(283.994 0 0)
(271.771 0 0)
(177.817 0 0)
(27.795 0 0)
(2.37303 0 0)
(0.192624 0 0)
(0.0152867 0 0)
(0.00120457 0 0)
(9.44148e-05 0 0)
(7.36581e-06 0 0)
(5.71408e-07 0 0)
(4.40495e-08 0 0)
(3.37517e-09 0 0)
(2.57358e-10 0 0)
(1.96901e-11 0 0)
(1.60714e-12 0 0)
(1.97455e-13 0 0)
(4.26526e-14 0 0)
(2.11702e-16 0 0)
)
;

boundaryField
{
    sides
    {
        type            zeroGradient;
    }
    empty
    {
        type            empty;
    }
}


// ************************************************************************* //
