/*--------------------------------*- C++ -*----------------------------------*\
| =========                 |                                                 |
| \\      /  F ield         | OpenFOAM: The Open Source CFD Toolbox           |
|  \\    /   O peration     | Version:  2312                                  |
|   \\  /    A nd           | Website:  www.openfoam.com                      |
|    \\/     M anipulation  |                                                 |
\*---------------------------------------------------------------------------*/
FoamFile
{
    version     2.0;
    format      ascii;
    arch        "LSB;label=32;scalar=64";
    class       volScalarField;
    location    "0.055";
    object      p;
}
// * * * * * * * * * * * * * * * * * * * * * * * * * * * * * * * * * * * * * //

dimensions      [1 -1 -2 0 0 0 0];

internalField   nonuniform List<scalar> 
100
(
30109.5
29986.1
29816.1
29631.5
29469.6
29275.2
29131.9
28917.5
28805.3
28557.6
28489.4
28197.9
28180
27845.9
27867.5
27514.1
27539
27216.6
27182.5
26964.2
26790.9
26761.4
26365.4
26603.8
25916.8
26476.1
25467.9
26351.2
25052.1
26194.2
24705.8
25974.3
24453
25680.2
24293.1
25328.5
24199.7
24957.1
24133.9
24607.7
24063
24308.8
23972.5
24069.3
23866
23884
23756.8
23742.9
23658.4
23637.9
23580.1
23564.6
23526.5
23520.3
23498.8
23503.2
23496
23510.6
23515.4
23539.3
23554.3
23586.3
23610.3
23651.3
23686.8
23744
23807.4
23914.7
24072.4
24352.5
24809
25549.3
26599.9
27933.2
29365.4
30718.9
31820.1
32649
33208.6
33591.9
33832
34005.6
34115.7
34210.4
34274
34340.3
34387.4
34442.9
34483.5
34533.7
34571
34617.9
34653
34697.1
34730
34771.5
34801.9
34840.6
34867.8
34899.2
)
;

boundaryField
{
    sides
    {
        type            zeroGradient;
    }
    empty
    {
        type            empty;
    }
}


// ************************************************************************* //
