/*--------------------------------*- C++ -*----------------------------------*\
| =========                 |                                                 |
| \\      /  F ield         | OpenFOAM: The Open Source CFD Toolbox           |
|  \\    /   O peration     | Version:  2312                                  |
|   \\  /    A nd           | Website:  www.openfoam.com                      |
|    \\/     M anipulation  |                                                 |
\*---------------------------------------------------------------------------*/
FoamFile
{
    version     2.0;
    format      ascii;
    arch        "LSB;label=32;scalar=64";
    class       volScalarField;
    location    "0.055";
    object      rho;
}
// * * * * * * * * * * * * * * * * * * * * * * * * * * * * * * * * * * * * * //

dimensions      [1 -3 0 0 0 0 0];

internalField   nonuniform List<scalar> 
100
(
0.46234
0.4612
0.459637
0.458073
0.456489
0.454937
0.453335
0.451795
0.450154
0.448616
0.446914
0.445348
0.443571
0.441926
0.440084
0.438287
0.436409
0.43439
0.432523
0.430241
0.428437
0.425899
0.424205
0.421474
0.419914
0.417112
0.415667
0.412967
0.411561
0.409169
0.407685
0.405781
0.404132
0.402798
0.400988
0.400169
0.398315
0.397843
0.396123
0.395808
0.394372
0.394084
0.393001
0.392707
0.391966
0.391703
0.391254
0.391082
0.390876
0.390845
0.390852
0.390991
0.391197
0.391516
0.391913
0.392411
0.392988
0.393656
0.3944
0.395225
0.396122
0.397094
0.398138
0.399265
0.400492
0.401869
0.40349
0.405556
0.408437
0.412782
0.419529
0.429668
0.443579
0.460351
0.477873
0.493821
0.506733
0.516294
0.522989
0.527565
0.530709
0.532928
0.53456
0.53582
0.536837
0.537694
0.538438
0.539104
0.539709
0.540271
0.540796
0.541292
0.541764
0.542214
0.542645
0.543058
0.543452
0.543827
0.544184
0.54443
)
;

boundaryField
{
    sides
    {
        type            zeroGradient;
    }
    empty
    {
        type            empty;
    }
}


// ************************************************************************* //
