/*--------------------------------*- C++ -*----------------------------------*\
| =========                 |                                                 |
| \\      /  F ield         | OpenFOAM: The Open Source CFD Toolbox           |
|  \\    /   O peration     | Version:  2312                                  |
|   \\  /    A nd           | Website:  www.openfoam.com                      |
|    \\/     M anipulation  |                                                 |
\*---------------------------------------------------------------------------*/
FoamFile
{
    version     2.0;
    format      ascii;
    arch        "LSB;label=32;scalar=64";
    class       volScalarField;
    location    "0.055";
    object      T;
}
// * * * * * * * * * * * * * * * * * * * * * * * * * * * * * * * * * * * * * //

dimensions      [0 0 0 1 0 0 0];

internalField   nonuniform List<scalar> 
100
(
226.363
225.992
225.476
224.844
224.392
223.672
223.364
222.476
222.42
221.264
221.576
220.08
220.821
219.015
220.103
218.203
219.34
217.779
218.445
217.841
217.352
218.407
216.034
219.399
214.528
220.63
212.966
221.793
211.58
222.518
210.639
222.492
210.316
221.602
210.579
220.003
211.177
218.044
211.768
216.097
212.084
214.406
212.022
213.039
211.638
211.94
211.053
211.023
210.382
210.217
209.699
209.486
209.038
208.813
208.41
208.185
207.815
207.592
207.243
207.02
206.683
206.457
206.126
205.9
205.578
205.368
205.089
204.964
204.86
205.063
205.547
206.685
208.436
210.909
213.593
216.222
218.265
219.804
220.71
221.321
221.582
221.792
221.83
221.923
221.914
221.99
221.987
222.07
222.082
222.175
222.199
222.296
222.328
222.426
222.46
222.557
222.59
222.683
222.711
222.811
)
;

boundaryField
{
    sides
    {
        type            zeroGradient;
    }
    empty
    {
        type            empty;
    }
}


// ************************************************************************* //
