/*--------------------------------*- C++ -*----------------------------------*\
| =========                 |                                                 |
| \\      /  F ield         | OpenFOAM: The Open Source CFD Toolbox           |
|  \\    /   O peration     | Version:  2312                                  |
|   \\  /    A nd           | Website:  www.openfoam.com                      |
|    \\/     M anipulation  |                                                 |
\*---------------------------------------------------------------------------*/
FoamFile
{
    version     2.0;
    format      ascii;
    arch        "LSB;label=32;scalar=64";
    class       volVectorField;
    location    "0.055";
    object      U;
}
// * * * * * * * * * * * * * * * * * * * * * * * * * * * * * * * * * * * * * //

dimensions      [0 1 -1 0 0 0 0];

internalField   nonuniform List<vector> 
100
(
(172.197 0 0)
(173.415 0 0)
(174.915 0 0)
(176.401 0 0)
(177.922 0 0)
(179.39 0 0)
(180.927 0 0)
(182.368 0 0)
(183.926 0 0)
(185.335 0 0)
(186.908 0 0)
(188.297 0 0)
(189.861 0 0)
(191.263 0 0)
(192.774 0 0)
(194.238 0 0)
(195.643 0 0)
(197.224 0 0)
(198.478 0 0)
(200.215 0 0)
(201.294 0 0)
(203.198 0 0)
(204.113 0 0)
(206.155 0 0)
(206.955 0 0)
(209.059 0 0)
(209.843 0 0)
(211.88 0 0)
(212.787 0 0)
(214.6 0 0)
(215.771 0 0)
(217.234 0 0)
(218.742 0 0)
(219.825 0 0)
(221.627 0 0)
(222.416 0 0)
(224.364 0 0)
(225.02 0 0)
(226.929 0 0)
(227.606 0 0)
(229.336 0 0)
(230.115 0 0)
(231.611 0 0)
(232.489 0 0)
(233.766 0 0)
(234.691 0 0)
(235.792 0 0)
(236.702 0 0)
(237.664 0 0)
(238.515 0 0)
(239.363 0 0)
(240.132 0 0)
(240.876 0 0)
(241.557 0 0)
(242.206 0 0)
(242.804 0 0)
(243.369 0 0)
(243.892 0 0)
(244.387 0 0)
(244.849 0 0)
(245.286 0 0)
(245.695 0 0)
(246.078 0 0)
(246.423 0 0)
(246.717 0 0)
(246.915 0 0)
(246.941 0 0)
(246.634 0 0)
(245.712 0 0)
(243.711 0 0)
(240.018 0 0)
(234.105 0 0)
(225.965 0 0)
(216.428 0 0)
(206.902 0 0)
(198.702 0 0)
(192.502 0 0)
(188.314 0 0)
(185.752 0 0)
(184.34 0 0)
(183.674 0 0)
(183.464 0 0)
(183.525 0 0)
(183.74 0 0)
(184.044 0 0)
(184.392 0 0)
(184.766 0 0)
(185.147 0 0)
(185.532 0 0)
(185.912 0 0)
(186.288 0 0)
(186.655 0 0)
(187.015 0 0)
(187.366 0 0)
(187.709 0 0)
(188.045 0 0)
(188.374 0 0)
(188.697 0 0)
(189.018 0 0)
(189.28 0 0)
)
;

boundaryField
{
    sides
    {
        type            mywaveTransmissive;
        gamma           1.4;
        value           nonuniform List<vector> 2((189.394 0 0) (171.704 0 0));
    }
    empty
    {
        type            empty;
    }
}


// ************************************************************************* //
