/*--------------------------------*- C++ -*----------------------------------*\
| =========                 |                                                 |
| \\      /  F ield         | OpenFOAM: The Open Source CFD Toolbox           |
|  \\    /   O peration     | Version:  2312                                  |
|   \\  /    A nd           | Website:  www.openfoam.com                      |
|    \\/     M anipulation  |                                                 |
\*---------------------------------------------------------------------------*/
FoamFile
{
    version     2.0;
    format      ascii;
    arch        "LSB;label=32;scalar=64";
    class       volScalarField;
    location    "0.01";
    object      p;
}
// * * * * * * * * * * * * * * * * * * * * * * * * * * * * * * * * * * * * * //

dimensions      [1 -1 -2 0 0 0 0];

internalField   nonuniform List<scalar> 
100
(
100207
100207
100207
100207
100207
100206
100204
100198
100185
100154
100085
99940
99658.6
99150.6
98305.4
97015.7
95215.3
92913.3
90200.3
87216.3
84097
80993.6
78044.7
75250.5
72594.9
70055
67616.6
65271.2
63011.4
60832.1
58729.1
56698.7
54737.8
52843.5
51013.1
49244
47533.8
45879.9
44280
42732.2
41235.4
39789.2
38394.4
37053
35766.7
34539.3
33379.3
32306.3
31248.4
30323.3
29643.1
28913.9
28306.4
28197.8
28190.1
28123.2
28303.5
28326
28390.8
28491.7
28540.7
28545
28497.8
28456.3
28448.7
28483.3
28519
28536.7
28542.2
28515.8
28500.6
28497.8
28523.9
28557.3
28595.2
28570.3
28590.5
28431.4
28727.7
27955.8
29096.6
28238.1
28732.7
28515.1
28612
28557.6
28565.2
28559.3
28560.8
28565.6
28567.9
28555.3
28554.6
28555.9
28563.2
28534
28420.4
28255
28222.2
28234.1
)
;

boundaryField
{
    sides
    {
        type            zeroGradient;
    }
    empty
    {
        type            empty;
    }
}


// ************************************************************************* //
