/*--------------------------------*- C++ -*----------------------------------*\
| =========                 |                                                 |
| \\      /  F ield         | OpenFOAM: The Open Source CFD Toolbox           |
|  \\    /   O peration     | Version:  2312                                  |
|   \\  /    A nd           | Website:  www.openfoam.com                      |
|    \\/     M anipulation  |                                                 |
\*---------------------------------------------------------------------------*/
FoamFile
{
    version     2.0;
    format      ascii;
    arch        "LSB;label=32;scalar=64";
    class       volScalarField;
    location    "0.01";
    object      rho;
}
// * * * * * * * * * * * * * * * * * * * * * * * * * * * * * * * * * * * * * //

dimensions      [1 -3 0 0 0 0 0];

internalField   nonuniform List<scalar> 
100
(
1.16102
1.16102
1.16102
1.16102
1.16102
1.16101
1.16099
1.16095
1.16084
1.16058
1.16001
1.15881
1.15648
1.15226
1.14524
1.13449
1.11942
1.10004
1.07703
1.05149
1.02451
0.99737
0.971329
0.946395
0.92245
0.899312
0.876869
0.855062
0.833835
0.813155
0.792996
0.773335
0.754153
0.735434
0.717162
0.699324
0.681902
0.664883
0.648251
0.631996
0.616114
0.600612
0.585508
0.570832
0.556614
0.54291
0.529834
0.517615
0.505462
0.49475
0.486844
0.478346
0.470984
0.469567
0.469515
0.46898
0.471337
0.47141
0.471891
0.473033
0.473766
0.474036
0.473745
0.473178
0.472801
0.472712
0.472881
0.473142
0.473521
0.473652
0.473497
0.473035
0.471737
0.468163
0.460486
0.445636
0.422483
0.387368
0.347985
0.298453
0.274488
0.251552
0.245527
0.239662
0.238088
0.236839
0.236547
0.23643
0.236445
0.23654
0.23672
0.236884
0.237087
0.23724
0.237383
0.237274
0.236674
0.235783
0.235494
0.235301
)
;

boundaryField
{
    sides
    {
        type            zeroGradient;
    }
    empty
    {
        type            empty;
    }
}


// ************************************************************************* //
