/*--------------------------------*- C++ -*----------------------------------*\
| =========                 |                                                 |
| \\      /  F ield         | OpenFOAM: The Open Source CFD Toolbox           |
|  \\    /   O peration     | Version:  2312                                  |
|   \\  /    A nd           | Website:  www.openfoam.com                      |
|    \\/     M anipulation  |                                                 |
\*---------------------------------------------------------------------------*/
FoamFile
{
    version     2.0;
    format      ascii;
    arch        "LSB;label=32;scalar=64";
    class       volScalarField;
    location    "0.01";
    object      T;
}
// * * * * * * * * * * * * * * * * * * * * * * * * * * * * * * * * * * * * * //

dimensions      [0 0 0 1 0 0 0];

internalField   nonuniform List<scalar> 
100
(
300
300
300
300
300
299.999
299.997
299.993
299.981
299.955
299.895
299.771
299.53
299.093
298.362
297.238
295.649
293.585
291.102
288.308
285.318
282.265
279.28
276.376
273.543
270.765
268.029
265.331
262.665
260.029
257.422
254.841
252.285
249.753
247.245
244.759
242.295
239.85
237.426
235.02
232.633
230.268
227.928
225.62
223.352
221.131
218.978
216.942
214.883
213.037
211.639
210.101
208.901
208.728
208.694
208.436
208.724
208.857
209.122
209.358
209.394
209.306
209.089
209.034
209.145
209.439
209.626
209.641
209.513
209.262
209.219
209.402
210.17
212.023
215.844
222.842
235.221
255.117
286.948
325.581
368.453
390.185
406.761
413.561
417.708
419.113
419.744
419.863
419.859
419.761
419.476
419
418.631
418.382
418.235
417.999
417.391
416.531
416.557
417.073
)
;

boundaryField
{
    sides
    {
        type            zeroGradient;
    }
    empty
    {
        type            empty;
    }
}


// ************************************************************************* //
