/*--------------------------------*- C++ -*----------------------------------*\
| =========                 |                                                 |
| \\      /  F ield         | OpenFOAM: The Open Source CFD Toolbox           |
|  \\    /   O peration     | Version:  2312                                  |
|   \\  /    A nd           | Website:  www.openfoam.com                      |
|    \\/     M anipulation  |                                                 |
\*---------------------------------------------------------------------------*/
FoamFile
{
    version     2.0;
    format      ascii;
    arch        "LSB;label=32;scalar=64";
    class       volScalarField;
    location    "0.01";
    object      thermo:e;
}
// * * * * * * * * * * * * * * * * * * * * * * * * * * * * * * * * * * * * * //

dimensions      [0 2 -2 0 0 0 0];

internalField   nonuniform List<scalar> 
100
(
215760
215760
215760
215760
215760
215759
215758
215755
215747
215727
215685
215596
215422
215108
214582
213773
212631
211146
209361
207351
205201
203005
200858
198769
196732
194734
192767
190826
188909
187013
185138
183281
181443
179622
177819
176031
174258
172500
170757
169026
167310
165609
163926
162266
160634
159037
157489
156025
154544
153216
152211
151104
150242
150117
150093
149907
150114
150210
150401
150571
150596
150533
150376
150337
150417
150628
150763
150774
150682
150501
150470
150602
151155
152487
155235
160268
169171
183480
206373
234158
264991
280621
292542
297433
300416
301426
301880
301965
301963
301892
301687
301344
301080
300900
300794
300625
300188
299569
299588
299959
)
;

boundaryField
{
    sides
    {
        type            zeroGradient;
    }
    empty
    {
        type            empty;
    }
}


// ************************************************************************* //
