/*--------------------------------*- C++ -*----------------------------------*\
| =========                 |                                                 |
| \\      /  F ield         | OpenFOAM: The Open Source CFD Toolbox           |
|  \\    /   O peration     | Version:  2312                                  |
|   \\  /    A nd           | Website:  www.openfoam.com                      |
|    \\/     M anipulation  |                                                 |
\*---------------------------------------------------------------------------*/
FoamFile
{
    version     2.0;
    format      ascii;
    arch        "LSB;label=32;scalar=64";
    class       volVectorField;
    location    "0.01";
    object      U;
}
// * * * * * * * * * * * * * * * * * * * * * * * * * * * * * * * * * * * * * //

dimensions      [0 1 -1 0 0 0 0];

internalField   nonuniform List<vector> 
100
(
(7.75574e-06 0 0)
(3.34304e-05 0 0)
(0.00010722 0 0)
(0.000339274 0 0)
(0.00103132 0 0)
(0.00301022 0 0)
(0.00841942 0 0)
(0.0225191 0 0)
(0.0574601 0 0)
(0.139485 0 0)
(0.32112 0 0)
(0.698651 0 0)
(1.43121 0 0)
(2.7507 0 0)
(4.94542 0 0)
(8.30343 0 0)
(13.0229 0 0)
(19.1286 0 0)
(26.4487 0 0)
(34.6814 0 0)
(43.534 0 0)
(52.5044 0 0)
(61.3401 0 0)
(69.9974 0 0)
(78.5178 0 0)
(86.9257 0 0)
(95.2484 0 0)
(103.505 0 0)
(111.704 0 0)
(119.855 0 0)
(127.962 0 0)
(136.03 0 0)
(144.062 0 0)
(152.059 0 0)
(160.023 0 0)
(167.958 0 0)
(175.865 0 0)
(183.748 0 0)
(191.608 0 0)
(199.447 0 0)
(207.262 0 0)
(215.043 0 0)
(222.777 0 0)
(230.443 0 0)
(238.015 0 0)
(245.433 0 0)
(252.714 0 0)
(259.873 0 0)
(266.269 0 0)
(272.457 0 0)
(278.923 0 0)
(283.177 0 0)
(285.451 0 0)
(287.993 0 0)
(289.41 0 0)
(289.423 0 0)
(286.964 0 0)
(286.077 0 0)
(286.087 0 0)
(286.385 0 0)
(286.457 0 0)
(286.219 0 0)
(285.642 0 0)
(285.49 0 0)
(285.581 0 0)
(285.99 0 0)
(286.344 0 0)
(286.279 0 0)
(285.957 0 0)
(285.459 0 0)
(285.419 0 0)
(285.562 0 0)
(285.865 0 0)
(286.034 0 0)
(285.784 0 0)
(285.984 0 0)
(285.747 0 0)
(287.53 0 0)
(283.589 0 0)
(288.35 0 0)
(281.879 0 0)
(287.902 0 0)
(284.525 0 0)
(286.149 0 0)
(285.476 0 0)
(285.841 0 0)
(285.721 0 0)
(285.699 0 0)
(285.643 0 0)
(285.544 0 0)
(285.572 0 0)
(285.728 0 0)
(285.706 0 0)
(285.661 0 0)
(285.612 0 0)
(285.91 0 0)
(287.108 0 0)
(288.538 0 0)
(289.404 0 0)
(289.638 0 0)
)
;

boundaryField
{
    sides
    {
        type            zeroGradient;
    }
    empty
    {
        type            empty;
    }
}


// ************************************************************************* //
