/*--------------------------------*- C++ -*----------------------------------*\
| =========                 |                                                 |
| \\      /  F ield         | OpenFOAM: The Open Source CFD Toolbox           |
|  \\    /   O peration     | Version:  2312                                  |
|   \\  /    A nd           | Website:  www.openfoam.com                      |
|    \\/     M anipulation  |                                                 |
\*---------------------------------------------------------------------------*/
FoamFile
{
    version     2.0;
    format      ascii;
    arch        "LSB;label=32;scalar=64";
    class       volScalarField;
    location    "0.004";
    object      p;
}
// * * * * * * * * * * * * * * * * * * * * * * * * * * * * * * * * * * * * * //

dimensions      [1 -1 -2 0 0 0 0];

internalField   nonuniform List<scalar> 
100
(
413688
413666
413627
413557
413438
413243
412932
412452
411739
410714
409289
407373
404880
401733
397876
393277
387928
381849
375083
367686
359733
351300
342469
333319
323927
314362
304690
294966
285241
275559
265958
256471
247126
237948
228957
220172
211609
203281
195204
187389
179850
172601
165658
159039
152766
146865
141368
136312
131740
127697
124224
121349
119076
117374
116176
115388
114904
114626
114478
114407
114377
114370
114375
114387
114402
114419
114438
114457
114476
114495
114514
114533
114551
114569
114587
114606
114625
114644
114664
114685
114706
114730
114755
114781
114810
114840
114873
114909
114947
114989
115033
115072
115060
114802
113673
110198
102107
88114.3
70780.4
55973.5
)
;

boundaryField
{
    sides
    {
        type            zeroGradient;
    }
    empty
    {
        type            empty;
    }
}


// ************************************************************************* //
