/*--------------------------------*- C++ -*----------------------------------*\
| =========                 |                                                 |
| \\      /  F ield         | OpenFOAM: The Open Source CFD Toolbox           |
|  \\    /   O peration     | Version:  2212                                  |
|   \\  /    A nd           | Website:  www.openfoam.com                      |
|    \\/     M anipulation  |                                                 |
\*---------------------------------------------------------------------------*/
FoamFile
{
    version     2.0;
    format      ascii;
    arch        "LSB;label=32;scalar=64";
    class       volScalarField;
    location    "0.004";
    object      p;
}
// * * * * * * * * * * * * * * * * * * * * * * * * * * * * * * * * * * * * * //

dimensions      [1 -1 -2 0 0 0 0];

internalField   nonuniform List<scalar> 
100
(
99999.3
99999.3
99999.3
99999.3
99999.3
99999.3
99999.3
99999.3
99999.3
99999.3
99999.3
99999.3
99999.3
99999.3
99999.3
99999.3
99999.3
99999.3
99999.3
99999.2
99998.9
99998.2
99996.2
99991
99978.4
99949.7
99888.5
99766.3
99538.4
99141.7
98496.9
97517.4
96123.4
94257.8
91897.9
89059.4
85792.1
82169.9
78278.8
74207.4
70038.5
65846.3
61693.8
57633.7
53709.5
49957.5
46409.3
43094.2
40042.4
37287.9
34871.2
32838.4
31233
30073.5
29327.9
28907.4
28701
28608.6
28569.9
28554.5
28549.3
28548.8
28550.8
28554.2
28557.9
28561.5
28562.6
28540.4
28389.6
27776.6
26056.5
22686.5
18139.8
14010.2
11521
10480.5
10138.6
10038.3
10010.2
10002.6
10000.6
10000.1
9999.97
9999.94
9999.93
9999.93
9999.93
9999.93
9999.93
9999.93
9999.93
9999.93
9999.93
9999.93
9999.93
9999.93
9999.93
9999.93
9999.93
9999.93
)
;

boundaryField
{
    sides
    {
        type            zeroGradient;
    }
    empty
    {
        type            empty;
    }
}


// ************************************************************************* //
