/*--------------------------------*- C++ -*----------------------------------*\
| =========                 |                                                 |
| \\      /  F ield         | OpenFOAM: The Open Source CFD Toolbox           |
|  \\    /   O peration     | Version:  2312                                  |
|   \\  /    A nd           | Website:  www.openfoam.com                      |
|    \\/     M anipulation  |                                                 |
\*---------------------------------------------------------------------------*/
FoamFile
{
    version     2.0;
    format      ascii;
    arch        "LSB;label=32;scalar=64";
    class       volScalarField;
    location    "0.004";
    object      p;
}
// * * * * * * * * * * * * * * * * * * * * * * * * * * * * * * * * * * * * * //

dimensions      [1 -1 -2 0 0 0 0];

internalField   nonuniform List<scalar> 
100
(
100207
100207
100207
100207
100207
100207
100207
100207
100207
100207
100207
100207
100207
100207
100207
100207
100207
100207
100207
100207
100207
100206
100204
100198
100186
100156
100094
99970.5
99740.1
99339.6
98689.6
97703.4
96301.6
94427.3
92058.2
89210.4
85934
82302.8
78403.3
74323.9
70147.6
65948.4
61789.6
57723.8
53794.5
50038
46485.7
43167
40111.8
37354
34933.8
32897.3
31288.1
30125.2
29377.2
28955.6
28749.4
28658.2
28621.4
28608.4
28605.4
28606.7
28609.8
28613.5
28617.1
28620.3
28620.4
28596.8
28447.1
27846.2
26158.8
22832.6
18303.4
14141.4
11599.2
10523.6
10166.8
10061.4
10031.7
10023.6
10021.4
10020.9
10020.7
10020.7
10020.7
10020.7
10020.7
10020.7
10020.7
10020.7
10020.7
10020.7
10020.7
10020.7
10020.7
10020.7
10020.7
10020.7
10020.7
10020.7
)
;

boundaryField
{
    sides
    {
        type            zeroGradient;
    }
    empty
    {
        type            empty;
    }
}


// ************************************************************************* //
