/*--------------------------------*- C++ -*----------------------------------*\
| =========                 |                                                 |
| \\      /  F ield         | OpenFOAM: The Open Source CFD Toolbox           |
|  \\    /   O peration     | Version:  2212                                  |
|   \\  /    A nd           | Website:  www.openfoam.com                      |
|    \\/     M anipulation  |                                                 |
\*---------------------------------------------------------------------------*/
FoamFile
{
    version     2.0;
    format      ascii;
    arch        "LSB;label=32;scalar=64";
    class       volScalarField;
    location    "0.004";
    object      rho;
}
// * * * * * * * * * * * * * * * * * * * * * * * * * * * * * * * * * * * * * //

dimensions      [1 -3 0 0 0 0 0];

internalField   nonuniform List<scalar> 
100
(
1.16102
1.16102
1.16102
1.16102
1.16102
1.16102
1.16102
1.16102
1.16102
1.16102
1.16102
1.16102
1.16102
1.16102
1.16102
1.16102
1.16102
1.16102
1.16102
1.16102
1.16102
1.16101
1.16099
1.16095
1.16085
1.16061
1.1601
1.15909
1.15719
1.15389
1.14851
1.14032
1.12859
1.11281
1.09268
1.06823
1.03978
1.00782
0.972989
0.935963
0.897398
0.857902
0.818019
0.778225
0.738942
0.700549
0.663406
0.627874
0.594349
0.563287
0.535225
0.510754
0.490373
0.474146
0.461264
0.449853
0.437625
0.4226
0.403875
0.381798
0.357707
0.333414
0.310659
0.290739
0.274369
0.261712
0.252498
0.246078
0.241181
0.235171
0.223586
0.202431
0.173496
0.145844
0.127968
0.119983
0.117241
0.116419
0.116187
0.116124
0.116108
0.116103
0.116102
0.116102
0.116102
0.116102
0.116102
0.116102
0.116102
0.116102
0.116102
0.116102
0.116102
0.116102
0.116102
0.116102
0.116102
0.116102
0.116102
0.116102
)
;

boundaryField
{
    sides
    {
        type            zeroGradient;
    }
    empty
    {
        type            empty;
    }
}


// ************************************************************************* //
