/*--------------------------------*- C++ -*----------------------------------*\
| =========                 |                                                 |
| \\      /  F ield         | OpenFOAM: The Open Source CFD Toolbox           |
|  \\    /   O peration     | Version:  2312                                  |
|   \\  /    A nd           | Website:  www.openfoam.com                      |
|    \\/     M anipulation  |                                                 |
\*---------------------------------------------------------------------------*/
FoamFile
{
    version     2.0;
    format      ascii;
    arch        "LSB;label=32;scalar=64";
    class       volScalarField;
    location    "0.004";
    object      rho;
}
// * * * * * * * * * * * * * * * * * * * * * * * * * * * * * * * * * * * * * //

dimensions      [1 -3 0 0 0 0 0];

internalField   nonuniform List<scalar> 
100
(
1.16102
1.16102
1.16102
1.16102
1.16102
1.16102
1.16102
1.16102
1.16102
1.16102
1.16102
1.16102
1.16102
1.16102
1.16102
1.16102
1.16102
1.16102
1.16102
1.16102
1.16102
1.16101
1.16099
1.16095
1.16084
1.1606
1.16009
1.15906
1.15715
1.15383
1.14841
1.14018
1.12841
1.11258
1.09242
1.06794
1.03946
1.00748
0.972645
0.935615
0.897053
0.857565
0.817695
0.777918
0.738656
0.700289
0.663173
0.627671
0.594175
0.563138
0.535096
0.510637
0.490261
0.474039
0.461174
0.449804
0.437642
0.422704
0.404075
0.382082
0.358047
0.333771
0.310995
0.291029
0.274599
0.261882
0.252615
0.246154
0.241243
0.2353
0.223925
0.203078
0.174331
0.14656
0.128376
0.120152
0.117299
0.116438
0.116193
0.116126
0.116108
0.116104
0.116102
0.116102
0.116102
0.116102
0.116102
0.116102
0.116102
0.116102
0.116102
0.116102
0.116102
0.116102
0.116102
0.116102
0.116102
0.116102
0.116102
0.116102
)
;

boundaryField
{
    sides
    {
        type            zeroGradient;
    }
    empty
    {
        type            empty;
    }
}


// ************************************************************************* //
