/*--------------------------------*- C++ -*----------------------------------*\
| =========                 |                                                 |
| \\      /  F ield         | OpenFOAM: The Open Source CFD Toolbox           |
|  \\    /   O peration     | Version:  2312                                  |
|   \\  /    A nd           | Website:  www.openfoam.com                      |
|    \\/     M anipulation  |                                                 |
\*---------------------------------------------------------------------------*/
FoamFile
{
    version     2.0;
    format      ascii;
    arch        "LSB;label=32;scalar=64";
    class       volScalarField;
    location    "0.004";
    object      rho;
}
// * * * * * * * * * * * * * * * * * * * * * * * * * * * * * * * * * * * * * //

dimensions      [1 -3 0 0 0 0 0];

internalField   nonuniform List<scalar> 
100
(
1.16098
1.16094
1.16088
1.16076
1.16056
1.16023
1.15971
1.1589
1.15769
1.15596
1.15355
1.1503
1.14606
1.14069
1.13408
1.12616
1.1169
1.10631
1.09442
1.08132
1.06711
1.0519
1.0358
1.01893
1.00142
0.983363
0.964871
0.946035
0.92694
0.907662
0.88827
0.868825
0.849383
0.829993
0.810702
0.791553
0.772586
0.75384
0.735357
0.717176
0.699342
0.681904
0.664919
0.648452
0.632581
0.617399
0.603018
0.58957
0.577204
0.566076
0.556335
0.548092
0.541379
0.536123
0.532129
0.529102
0.52669
0.524522
0.522233
0.519443
0.515746
0.510683
0.503757
0.494476
0.482445
0.467457
0.449581
0.429186
0.406916
0.383594
0.360104
0.337281
0.315817
0.296224
0.278818
0.263738
0.250982
0.240434
0.231908
0.225174
0.21998
0.216073
0.21321
0.211171
0.209764
0.208827
0.208229
0.207868
0.207666
0.207571
0.207542
0.207546
0.207516
0.207233
0.206012
0.202235
0.193325
0.177467
0.156752
0.137538
)
;

boundaryField
{
    sides
    {
        type            zeroGradient;
    }
    empty
    {
        type            empty;
    }
}


// ************************************************************************* //
