/*--------------------------------*- C++ -*----------------------------------*\
| =========                 |                                                 |
| \\      /  F ield         | OpenFOAM: The Open Source CFD Toolbox           |
|  \\    /   O peration     | Version:  2212                                  |
|   \\  /    A nd           | Website:  www.openfoam.com                      |
|    \\/     M anipulation  |                                                 |
\*---------------------------------------------------------------------------*/
FoamFile
{
    version     2.0;
    format      ascii;
    arch        "LSB;label=32;scalar=64";
    class       volScalarField;
    location    "0.004";
    object      T;
}
// * * * * * * * * * * * * * * * * * * * * * * * * * * * * * * * * * * * * * //

dimensions      [0 0 0 1 0 0 0];

internalField   nonuniform List<scalar> 
100
(
300
300
300
300
300
300
300
300
300
300
300
300
300
300
300
300
300
300
300
300
300
299.999
299.997
299.993
299.982
299.957
299.905
299.8
299.605
299.265
298.711
297.866
296.658
295.027
292.939
290.387
287.39
283.984
280.221
276.155
271.842
267.336
262.689
257.95
253.166
248.386
243.663
239.062
234.662
230.57
226.931
223.941
221.846
220.921
221.46
223.822
228.433
235.793
246.391
260.499
277.991
298.241
320.11
342.082
362.54
380.121
394.007
403.972
409.998
411.396
405.916
390.351
364.174
334.596
313.583
304.248
301.206
300.33
300.089
300.023
300.006
300.001
300
300
300
300
300
300
300
300
300
300
300
300
300
300
300
300
300
300
)
;

boundaryField
{
    sides
    {
        type            zeroGradient;
    }
    empty
    {
        type            empty;
    }
}


// ************************************************************************* //
