/*--------------------------------*- C++ -*----------------------------------*\
| =========                 |                                                 |
| \\      /  F ield         | OpenFOAM: The Open Source CFD Toolbox           |
|  \\    /   O peration     | Version:  2312                                  |
|   \\  /    A nd           | Website:  www.openfoam.com                      |
|    \\/     M anipulation  |                                                 |
\*---------------------------------------------------------------------------*/
FoamFile
{
    version     2.0;
    format      ascii;
    arch        "LSB;label=32;scalar=64";
    class       volScalarField;
    location    "0.004";
    object      T;
}
// * * * * * * * * * * * * * * * * * * * * * * * * * * * * * * * * * * * * * //

dimensions      [0 0 0 1 0 0 0];

internalField   nonuniform List<scalar> 
100
(
300
300
300
300
300
300
300
300
300
300
300
300
300
300
300
300
300
300
300
300
300
299.999
299.997
299.993
299.982
299.957
299.904
299.798
299.601
299.258
298.7
297.852
296.639
295.004
292.912
290.357
287.356
283.949
280.184
276.118
271.805
267.301
262.656
257.919
253.139
248.362
243.644
239.047
234.65
230.56
226.922
223.93
221.827
220.892
221.416
223.755
228.335
235.654
246.203
260.256
277.698
297.909
319.76
341.741
362.235
379.867
393.803
403.808
409.87
411.345
406.05
390.802
364.94
335.382
314.057
304.437
301.268
300.35
300.094
300.025
300.006
300.002
300
300
300
300
300
300
300
300
300
300
300
300
300
300
300
300
300
300
)
;

boundaryField
{
    sides
    {
        type            zeroGradient;
    }
    empty
    {
        type            empty;
    }
}


// ************************************************************************* //
