/*--------------------------------*- C++ -*----------------------------------*\
| =========                 |                                                 |
| \\      /  F ield         | OpenFOAM: The Open Source CFD Toolbox           |
|  \\    /   O peration     | Version:  2312                                  |
|   \\  /    A nd           | Website:  www.openfoam.com                      |
|    \\/     M anipulation  |                                                 |
\*---------------------------------------------------------------------------*/
FoamFile
{
    version     2.0;
    format      ascii;
    arch        "LSB;label=32;scalar=64";
    class       volScalarField;
    location    "0.004";
    object      T;
}
// * * * * * * * * * * * * * * * * * * * * * * * * * * * * * * * * * * * * * //

dimensions      [0 0 0 1 0 0 0];

internalField   nonuniform List<scalar> 
100
(
299.993
299.987
299.975
299.955
299.921
299.864
299.774
299.635
299.427
299.13
298.715
298.157
297.428
296.505
295.37
294.008
292.415
290.59
288.54
286.276
283.813
281.169
278.361
275.409
272.33
269.141
265.859
262.499
259.074
255.595
252.076
248.524
244.95
241.363
237.769
234.178
230.595
227.029
223.488
219.98
216.514
213.101
209.753
206.486
203.317
200.27
197.371
194.653
192.155
189.92
187.989
186.4
185.176
184.319
183.808
183.605
183.672
183.985
184.554
185.428
186.709
188.549
191.15
194.757
199.641
206.073
214.302
224.523
236.85
251.292
267.728
285.892
305.37
325.62
346.003
365.845
384.503
401.438
416.268
428.795
439.003
447.033
453.134
457.614
460.798
462.989
464.453
465.405
466.011
466.394
466.638
466.787
466.804
466.394
464.547
458.755
444.663
418.016
380.157
342.629
)
;

boundaryField
{
    sides
    {
        type            zeroGradient;
    }
    empty
    {
        type            empty;
    }
}


// ************************************************************************* //
