/*--------------------------------*- C++ -*----------------------------------*\
| =========                 |                                                 |
| \\      /  F ield         | OpenFOAM: The Open Source CFD Toolbox           |
|  \\    /   O peration     | Version:  2312                                  |
|   \\  /    A nd           | Website:  www.openfoam.com                      |
|    \\/     M anipulation  |                                                 |
\*---------------------------------------------------------------------------*/
FoamFile
{
    version     2.0;
    format      ascii;
    arch        "LSB;label=32;scalar=64";
    class       volScalarField;
    location    "0.004";
    object      thermo:e;
}
// * * * * * * * * * * * * * * * * * * * * * * * * * * * * * * * * * * * * * //

dimensions      [0 2 -2 0 0 0 0];

internalField   nonuniform List<scalar> 
100
(
215760
215760
215760
215760
215760
215760
215760
215760
215760
215760
215760
215760
215760
215760
215760
215760
215760
215760
215760
215760
215760
215759
215758
215755
215747
215729
215691
215615
215473
215226
214825
214215
213343
212167
210662
208824
206667
204216
201508
198584
195482
192243
188902
185496
182057
178622
175229
171923
168761
165819
163202
161050
159538
158865
159242
160925
164219
169483
177069
187176
199720
214256
229971
245780
260519
273200
283223
290419
294779
295839
292031
281065
262465
241207
225870
218951
216672
216012
215828
215778
215765
215761
215760
215760
215760
215760
215760
215760
215760
215760
215760
215760
215760
215760
215760
215760
215760
215760
215760
215760
)
;

boundaryField
{
    sides
    {
        type            zeroGradient;
    }
    empty
    {
        type            empty;
    }
}


// ************************************************************************* //
