/*--------------------------------*- C++ -*----------------------------------*\
| =========                 |                                                 |
| \\      /  F ield         | OpenFOAM: The Open Source CFD Toolbox           |
|  \\    /   O peration     | Version:  2312                                  |
|   \\  /    A nd           | Website:  www.openfoam.com                      |
|    \\/     M anipulation  |                                                 |
\*---------------------------------------------------------------------------*/
FoamFile
{
    version     2.0;
    format      ascii;
    arch        "LSB;label=32;scalar=64";
    class       volScalarField;
    location    "0.004";
    object      thermo:e;
}
// * * * * * * * * * * * * * * * * * * * * * * * * * * * * * * * * * * * * * //

dimensions      [0 2 -2 0 0 0 0];

internalField   nonuniform List<scalar> 
100
(
534438
534427
534406
534370
534309
534208
534047
533799
533430
532899
532161
531166
529868
528224
526201
523776
520937
517686
514034
510001
505614
500903
495901
490641
485156
479475
473629
467642
461540
455343
449073
442746
436379
429988
423586
417187
410805
404453
398144
391894
385719
379639
373675
367854
362209
356781
351616
346775
342325
338342
334902
332071
329891
328365
327454
327092
327211
327769
328783
330341
332622
335899
340533
346960
355660
367119
381779
399987
421948
447677
476957
509316
544017
580093
616405
651753
684992
715162
741581
763897
782084
796389
807258
815240
820911
824815
827423
829118
830198
830880
831315
831581
831611
830882
827590
817271
792167
744696
677250
610393
)
;

boundaryField
{
    sides
    {
        type            zeroGradient;
    }
    empty
    {
        type            empty;
    }
}


// ************************************************************************* //
