/*--------------------------------*- C++ -*----------------------------------*\
| =========                 |                                                 |
| \\      /  F ield         | OpenFOAM: The Open Source CFD Toolbox           |
|  \\    /   O peration     | Version:  2212                                  |
|   \\  /    A nd           | Website:  www.openfoam.com                      |
|    \\/     M anipulation  |                                                 |
\*---------------------------------------------------------------------------*/
FoamFile
{
    version     2.0;
    format      ascii;
    arch        "LSB;label=32;scalar=64";
    class       volVectorField;
    location    "0.004";
    object      U;
}
// * * * * * * * * * * * * * * * * * * * * * * * * * * * * * * * * * * * * * //

dimensions      [0 1 -1 0 0 0 0];

internalField   nonuniform List<vector> 
100
(
(-3.08476e-13 0 0)
(-2.82681e-13 0 0)
(-2.57161e-13 0 0)
(-2.26143e-13 0 0)
(-1.87115e-13 0 0)
(-9.1478e-14 0 0)
(3.79829e-13 0 0)
(3.26769e-12 0 0)
(2.1085e-11 0 0)
(1.2442e-10 0 0)
(6.92731e-10 0 0)
(3.64476e-09 0 0)
(1.81297e-08 0 0)
(8.52773e-08 0 0)
(3.79351e-07 0 0)
(1.59596e-06 0 0)
(6.34976e-06 0 0)
(2.38888e-05 0 0)
(8.49667e-05 0 0)
(0.000285631 0 0)
(0.000907229 0 0)
(0.00272144 0 0)
(0.00770617 0 0)
(0.0205868 0 0)
(0.0518539 0 0)
(0.123067 0 0)
(0.275051 0 0)
(0.578644 0 0)
(1.14575 0 0)
(2.13613 0 0)
(3.75408 0 0)
(6.23128 0 0)
(9.7972 0 0)
(14.6451 0 0)
(20.9046 0 0)
(28.6284 0 0)
(37.796 0 0)
(48.3283 0 0)
(60.1075 0 0)
(72.9956 0 0)
(86.848 0 0)
(101.522 0 0)
(116.881 0 0)
(132.79 0 0)
(149.116 0 0)
(165.717 0 0)
(182.427 0 0)
(199.044 0 0)
(215.302 0 0)
(230.84 0 0)
(245.182 0 0)
(257.741 0 0)
(267.932 0 0)
(275.392 0 0)
(280.211 0 0)
(282.938 0 0)
(284.313 0 0)
(284.976 0 0)
(285.309 0 0)
(285.5 0 0)
(285.632 0 0)
(285.735 0 0)
(285.822 0 0)
(285.897 0 0)
(285.961 0 0)
(286.014 0 0)
(286.02 0 0)
(285.677 0 0)
(283.585 0 0)
(275.68 0 0)
(254.561 0 0)
(212.841 0 0)
(150.873 0 0)
(83.849 0 0)
(34.9947 0 0)
(11.6164 0 0)
(3.41302 0 0)
(0.948968 0 0)
(0.255639 0 0)
(0.0670315 0 0)
(0.0170861 0 0)
(0.00422199 0 0)
(0.00100839 0 0)
(0.000232163 0 0)
(5.13998e-05 0 0)
(1.09194e-05 0 0)
(2.22167e-06 0 0)
(4.32191e-07 0 0)
(8.02655e-08 0 0)
(1.42117e-08 0 0)
(2.39601e-09 0 0)
(3.84199e-10 0 0)
(5.85707e-11 0 0)
(8.50049e-12 0 0)
(1.14692e-12 0 0)
(9.15019e-14 0 0)
(-2.34444e-14 0 0)
(-5.94213e-14 0 0)
(-1.3834e-13 0 0)
(-1.74424e-13 0 0)
)
;

boundaryField
{
    sides
    {
        type            zeroGradient;
    }
    empty
    {
        type            empty;
    }
}


// ************************************************************************* //
