/*--------------------------------*- C++ -*----------------------------------*\
| =========                 |                                                 |
| \\      /  F ield         | OpenFOAM: The Open Source CFD Toolbox           |
|  \\    /   O peration     | Version:  2312                                  |
|   \\  /    A nd           | Website:  www.openfoam.com                      |
|    \\/     M anipulation  |                                                 |
\*---------------------------------------------------------------------------*/
FoamFile
{
    version     2.0;
    format      ascii;
    arch        "LSB;label=32;scalar=64";
    class       volVectorField;
    location    "0.004";
    object      U;
}
// * * * * * * * * * * * * * * * * * * * * * * * * * * * * * * * * * * * * * //

dimensions      [0 1 -1 0 0 0 0];

internalField   nonuniform List<vector> 
100
(
(0.0260065 0 0)
(0.0503399 0 0)
(0.0945867 0 0)
(0.172481 0 0)
(0.305182 0 0)
(0.523872 0 0)
(0.87238 0 0)
(1.40934 0 0)
(2.20917 0 0)
(3.36122 0 0)
(4.96656 0 0)
(7.13244 0 0)
(9.965 0 0)
(13.5612 0 0)
(18.0017 0 0)
(23.3448 0 0)
(29.6243 0 0)
(36.8488 0 0)
(45.0043 0 0)
(54.0579 0 0)
(63.9622 0 0)
(74.6606 0 0)
(86.091 0 0)
(98.1893 0 0)
(110.892 0 0)
(124.138 0 0)
(137.871 0 0)
(152.037 0 0)
(166.587 0 0)
(181.477 0 0)
(196.666 0 0)
(212.116 0 0)
(227.793 0 0)
(243.663 0 0)
(259.695 0 0)
(275.859 0 0)
(292.124 0 0)
(308.456 0 0)
(324.82 0 0)
(341.179 0 0)
(357.485 0 0)
(373.686 0 0)
(389.717 0 0)
(405.498 0 0)
(420.932 0 0)
(435.896 0 0)
(450.242 0 0)
(463.791 0 0)
(476.336 0 0)
(487.653 0 0)
(497.529 0 0)
(505.793 0 0)
(512.367 0 0)
(517.301 0 0)
(520.774 0 0)
(523.062 0 0)
(524.475 0 0)
(525.299 0 0)
(525.757 0 0)
(526.005 0 0)
(526.138 0 0)
(526.211 0 0)
(526.253 0 0)
(526.281 0 0)
(526.303 0 0)
(526.323 0 0)
(526.345 0 0)
(526.369 0 0)
(526.398 0 0)
(526.431 0 0)
(526.469 0 0)
(526.512 0 0)
(526.561 0 0)
(526.615 0 0)
(526.676 0 0)
(526.742 0 0)
(526.815 0 0)
(526.895 0 0)
(526.982 0 0)
(527.076 0 0)
(527.179 0 0)
(527.29 0 0)
(527.411 0 0)
(527.541 0 0)
(527.683 0 0)
(527.836 0 0)
(528.001 0 0)
(528.18 0 0)
(528.373 0 0)
(528.581 0 0)
(528.802 0 0)
(528.983 0 0)
(528.832 0 0)
(527.167 0 0)
(520.34 0 0)
(500 0 0)
(453.159 0 0)
(369.279 0 0)
(254.189 0 0)
(138.037 0 0)
)
;

boundaryField
{
    sides
    {
        type            zeroGradient;
    }
    empty
    {
        type            empty;
    }
}


// ************************************************************************* //
