/*--------------------------------*- C++ -*----------------------------------*\
| =========                 |                                                 |
| \\      /  F ield         | OpenFOAM: The Open Source CFD Toolbox           |
|  \\    /   O peration     | Version:  2312                                  |
|   \\  /    A nd           | Website:  www.openfoam.com                      |
|    \\/     M anipulation  |                                                 |
\*---------------------------------------------------------------------------*/
FoamFile
{
    version     2.0;
    format      ascii;
    arch        "LSB;label=32;scalar=64";
    class       volVectorField;
    location    "0.004";
    object      U;
}
// * * * * * * * * * * * * * * * * * * * * * * * * * * * * * * * * * * * * * //

dimensions      [0 1 -1 0 0 0 0];

internalField   nonuniform List<vector> 
100
(
(6.9611e-14 0 0)
(2.9959e-14 0 0)
(-1.07226e-14 0 0)
(1.58551e-14 0 0)
(4.17398e-14 0 0)
(9.59543e-14 0 0)
(5.34024e-13 0 0)
(3.47029e-12 0 0)
(2.17189e-11 0 0)
(1.28381e-10 0 0)
(7.16449e-10 0 0)
(3.77533e-09 0 0)
(1.8795e-08 0 0)
(8.84243e-08 0 0)
(3.93219e-07 0 0)
(1.65303e-06 0 0)
(6.56936e-06 0 0)
(2.46799e-05 0 0)
(8.76362e-05 0 0)
(0.000294072 0 0)
(0.00093224 0 0)
(0.00279088 0 0)
(0.00788671 0 0)
(0.0210262 0 0)
(0.0528546 0 0)
(0.125197 0 0)
(0.279287 0 0)
(0.586514 0 0)
(1.15941 0 0)
(2.15828 0 0)
(3.78776 0 0)
(6.27944 0 0)
(9.86234 0 0)
(14.7289 0 0)
(21.0079 0 0)
(28.7515 0 0)
(37.9386 0 0)
(48.4898 0 0)
(60.2874 0 0)
(73.193 0 0)
(87.0621 0 0)
(101.752 0 0)
(117.125 0 0)
(133.047 0 0)
(149.385 0 0)
(165.995 0 0)
(182.714 0 0)
(199.338 0 0)
(215.603 0 0)
(231.149 0 0)
(245.5 0 0)
(258.074 0 0)
(268.282 0 0)
(275.758 0 0)
(280.587 0 0)
(283.316 0 0)
(284.686 0 0)
(285.337 0 0)
(285.652 0 0)
(285.822 0 0)
(285.933 0 0)
(286.019 0 0)
(286.095 0 0)
(286.162 0 0)
(286.221 0 0)
(286.268 0 0)
(286.265 0 0)
(285.912 0 0)
(283.849 0 0)
(276.115 0 0)
(255.416 0 0)
(214.328 0 0)
(152.883 0 0)
(85.7747 0 0)
(36.1952 0 0)
(12.1297 0 0)
(3.59141 0 0)
(1.00587 0 0)
(0.273046 0 0)
(0.072176 0 0)
(0.0185502 0 0)
(0.00462118 0 0)
(0.00111221 0 0)
(0.000257836 0 0)
(5.7421e-05 0 0)
(1.22566e-05 0 0)
(2.50243e-06 0 0)
(4.8785e-07 0 0)
(9.06689e-08 0 0)
(1.60419e-08 0 0)
(2.69839e-09 0 0)
(4.31015e-10 0 0)
(6.53011e-11 0 0)
(9.38916e-12 0 0)
(1.27667e-12 0 0)
(1.46931e-13 0 0)
(8.8483e-14 0 0)
(1.86756e-13 0 0)
(2.25899e-13 0 0)
(2.65463e-13 0 0)
)
;

boundaryField
{
    sides
    {
        type            zeroGradient;
    }
    empty
    {
        type            empty;
    }
}


// ************************************************************************* //
