/*--------------------------------*- C++ -*----------------------------------*\
| =========                 |                                                 |
| \\      /  F ield         | OpenFOAM: The Open Source CFD Toolbox           |
|  \\    /   O peration     | Version:  2312                                  |
|   \\  /    A nd           | Website:  www.openfoam.com                      |
|    \\/     M anipulation  |                                                 |
\*---------------------------------------------------------------------------*/
FoamFile
{
    version     2.0;
    format      ascii;
    arch        "LSB;label=32;scalar=64";
    class       volScalarField;
    location    "0.021";
    object      p;
}
// * * * * * * * * * * * * * * * * * * * * * * * * * * * * * * * * * * * * * //

dimensions      [1 -1 -2 0 0 0 0];

internalField   nonuniform List<scalar> 
100
(
65430.4
64735.1
63786.3
62924.1
62037.6
61164.3
60292.8
59427.2
58566.8
57712.7
56865.3
56025.7
55193.1
54371.3
53552.1
52755.7
51938.3
51190.8
50338.6
49694.3
48739.8
48267.1
47164.6
46857.5
45685
45394.7
44335.3
43898.9
43043
42457.7
41740
41096.1
40434.5
39789.5
39150.8
38521
37900
37288.2
36686.1
36094.1
35513.1
34944
34387.8
33845.5
33318.7
32808.9
32318
31848.2
31401.8
30981.4
30590
30230.5
29905.8
29618.3
29369.9
29161.2
28991.3
28857.8
28757.2
28684.7
28634.5
28600.7
28579.7
28565.9
28560.4
28551.7
28556.7
28539.5
28567.3
28520.8
28596.7
28478.8
28643
28419.2
28705.4
28374.2
28739.9
28362.3
28710.3
28409.1
28658.2
28504
28623.3
28612.5
28642.2
28829.7
28809
29330.2
29130.3
30124.4
29409.4
31063
29586.7
32166.7
30277.1
34105.7
32910.9
37779
37483.7
40547
)
;

boundaryField
{
    sides
    {
        type            zeroGradient;
    }
    empty
    {
        type            empty;
    }
}


// ************************************************************************* //
