/*--------------------------------*- C++ -*----------------------------------*\
| =========                 |                                                 |
| \\      /  F ield         | OpenFOAM: The Open Source CFD Toolbox           |
|  \\    /   O peration     | Version:  2312                                  |
|   \\  /    A nd           | Website:  www.openfoam.com                      |
|    \\/     M anipulation  |                                                 |
\*---------------------------------------------------------------------------*/
FoamFile
{
    version     2.0;
    format      ascii;
    arch        "LSB;label=32;scalar=64";
    class       volScalarField;
    location    "0.021";
    object      rho;
}
// * * * * * * * * * * * * * * * * * * * * * * * * * * * * * * * * * * * * * //

dimensions      [1 -3 0 0 0 0 0];

internalField   nonuniform List<scalar> 
100
(
0.832272
0.828481
0.823982
0.819404
0.814212
0.808402
0.801945
0.79494
0.787509
0.779784
0.771873
0.763861
0.755807
0.747752
0.73972
0.731725
0.723789
0.715876
0.708092
0.700223
0.692665
0.684792
0.677458
0.669694
0.662348
0.654985
0.64741
0.640443
0.63288
0.625948
0.618673
0.611683
0.604637
0.597692
0.590795
0.583962
0.577193
0.570492
0.563868
0.557329
0.550883
0.544538
0.538308
0.53221
0.526263
0.520487
0.514903
0.509538
0.504423
0.499595
0.495091
0.490949
0.487202
0.483881
0.481005
0.478589
0.476629
0.475097
0.473939
0.473089
0.472485
0.472077
0.471808
0.471629
0.471494
0.471425
0.471355
0.471349
0.471179
0.471178
0.470932
0.471217
0.470972
0.471279
0.470686
0.47071
0.470455
0.470651
0.471099
0.470752
0.470765
0.469848
0.470196
0.470633
0.472408
0.473641
0.475484
0.476032
0.478873
0.480787
0.487299
0.490636
0.497509
0.498744
0.504226
0.511216
0.528712
0.555164
0.584881
0.612653
)
;

boundaryField
{
    sides
    {
        type            zeroGradient;
    }
    empty
    {
        type            empty;
    }
}


// ************************************************************************* //
