/*--------------------------------*- C++ -*----------------------------------*\
| =========                 |                                                 |
| \\      /  F ield         | OpenFOAM: The Open Source CFD Toolbox           |
|  \\    /   O peration     | Version:  2312                                  |
|   \\  /    A nd           | Website:  www.openfoam.com                      |
|    \\/     M anipulation  |                                                 |
\*---------------------------------------------------------------------------*/
FoamFile
{
    version     2.0;
    format      ascii;
    arch        "LSB;label=32;scalar=64";
    class       volScalarField;
    location    "0.021";
    object      T;
}
// * * * * * * * * * * * * * * * * * * * * * * * * * * * * * * * * * * * * * //

dimensions      [0 0 0 1 0 0 0];

internalField   nonuniform List<scalar> 
100
(
273.261
271.594
269.075
266.921
264.838
262.987
261.327
259.845
258.499
257.253
256.074
254.939
253.827
252.741
251.636
250.602
249.425
248.552
247.101
246.68
244.582
244.994
241.99
243.201
239.746
240.9
238.031
238.252
236.398
235.766
234.507
233.527
232.445
231.395
230.339
229.285
228.235
227.188
226.145
225.106
224.075
223.053
222.043
221.045
220.063
219.101
218.163
217.256
216.383
215.549
214.762
214.029
213.358
212.758
212.235
211.79
211.422
211.127
210.905
210.751
210.651
210.585
210.55
210.528
210.548
210.515
210.583
210.459
210.74
210.397
211.067
210.07
211.391
209.603
211.98
209.524
212.339
209.462
211.831
209.762
211.596
210.868
211.595
211.318
210.743
211.57
210.599
214.162
211.441
217.786
209.775
220.063
206.709
224.177
208.715
231.892
216.364
236.534
222.76
230.042
)
;

boundaryField
{
    sides
    {
        type            zeroGradient;
    }
    empty
    {
        type            empty;
    }
}


// ************************************************************************* //
