/*--------------------------------*- C++ -*----------------------------------*\
| =========                 |                                                 |
| \\      /  F ield         | OpenFOAM: The Open Source CFD Toolbox           |
|  \\    /   O peration     | Version:  2312                                  |
|   \\  /    A nd           | Website:  www.openfoam.com                      |
|    \\/     M anipulation  |                                                 |
\*---------------------------------------------------------------------------*/
FoamFile
{
    version     2.0;
    format      ascii;
    arch        "LSB;label=32;scalar=64";
    class       volScalarField;
    location    "0.021";
    object      thermo:e;
}
// * * * * * * * * * * * * * * * * * * * * * * * * * * * * * * * * * * * * * //

dimensions      [0 2 -2 0 0 0 0];

internalField   nonuniform List<scalar> 
100
(
196529
195331
193518
191969
190472
189140
187946
186880
185913
185016
184168
183352
182552
181771
180976
180233
179386
178759
177715
177412
175903
176200
174039
174910
172425
173256
171192
171351
170018
169563
168657
167953
167175
166419
165660
164902
164147
163394
162643
161896
161155
160420
159693
158976
158270
157577
156903
156250
155622
155023
154457
153930
153447
153015
152639
152320
152055
151843
151683
151572
151500
151453
151428
151412
151426
151402
151451
151362
151564
151318
151799
151082
152033
150747
152456
150689
152714
150645
152349
150861
152180
151656
152179
151980
151566
152161
151463
154025
152068
156631
150870
158269
148665
161228
150108
166777
155609
170115
160209
165446
)
;

boundaryField
{
    sides
    {
        type            zeroGradient;
    }
    empty
    {
        type            empty;
    }
}


// ************************************************************************* //
