/*--------------------------------*- C++ -*----------------------------------*\
| =========                 |                                                 |
| \\      /  F ield         | OpenFOAM: The Open Source CFD Toolbox           |
|  \\    /   O peration     | Version:  2312                                  |
|   \\  /    A nd           | Website:  www.openfoam.com                      |
|    \\/     M anipulation  |                                                 |
\*---------------------------------------------------------------------------*/
FoamFile
{
    version     2.0;
    format      ascii;
    arch        "LSB;label=32;scalar=64";
    class       volVectorField;
    location    "0.021";
    object      U;
}
// * * * * * * * * * * * * * * * * * * * * * * * * * * * * * * * * * * * * * //

dimensions      [0 1 -1 0 0 0 0];

internalField   nonuniform List<vector> 
100
(
(80.7714 0 0)
(84.3438 0 0)
(88.2989 0 0)
(92.0912 0 0)
(95.9193 0 0)
(99.7389 0 0)
(103.584 0 0)
(107.456 0 0)
(111.356 0 0)
(115.284 0 0)
(119.233 0 0)
(123.203 0 0)
(127.185 0 0)
(131.186 0 0)
(135.187 0 0)
(139.22 0 0)
(143.216 0 0)
(147.307 0 0)
(151.256 0 0)
(155.442 0 0)
(159.315 0 0)
(163.578 0 0)
(167.456 0 0)
(171.631 0 0)
(175.705 0 0)
(179.635 0 0)
(183.923 0 0)
(187.731 0 0)
(191.994 0 0)
(195.888 0 0)
(200.003 0 0)
(203.975 0 0)
(207.988 0 0)
(211.96 0 0)
(215.914 0 0)
(219.839 0 0)
(223.734 0 0)
(227.595 0 0)
(231.418 0 0)
(235.198 0 0)
(238.93 0 0)
(242.609 0 0)
(246.227 0 0)
(249.777 0 0)
(253.247 0 0)
(256.627 0 0)
(259.902 0 0)
(263.056 0 0)
(266.071 0 0)
(268.924 0 0)
(271.591 0 0)
(274.048 0 0)
(276.269 0 0)
(278.235 0 0)
(279.93 0 0)
(281.35 0 0)
(282.499 0 0)
(283.392 0 0)
(284.058 0 0)
(284.535 0 0)
(284.864 0 0)
(285.081 0 0)
(285.217 0 0)
(285.296 0 0)
(285.354 0 0)
(285.375 0 0)
(285.408 0 0)
(285.369 0 0)
(285.426 0 0)
(285.351 0 0)
(285.507 0 0)
(285.344 0 0)
(285.523 0 0)
(285.258 0 0)
(285.457 0 0)
(285.348 0 0)
(285.478 0 0)
(285.534 0 0)
(285.31 0 0)
(285.422 0 0)
(285.087 0 0)
(285.341 0 0)
(285.083 0 0)
(285.07 0 0)
(284.241 0 0)
(283.477 0 0)
(281.708 0 0)
(280.634 0 0)
(278.201 0 0)
(277.393 0 0)
(274.183 0 0)
(273.276 0 0)
(269.09 0 0)
(266.894 0 0)
(261.006 0 0)
(254.204 0 0)
(243.831 0 0)
(231.115 0 0)
(221.415 0 0)
(210.23 0 0)
)
;

boundaryField
{
    sides
    {
        type            mywaveTransmissive;
        gamma           1.4;
        value           nonuniform List<vector> 2((209.864 0 0) (79.2785 0 0));
    }
    empty
    {
        type            empty;
    }
}


// ************************************************************************* //
