/*--------------------------------*- C++ -*----------------------------------*\
| =========                 |                                                 |
| \\      /  F ield         | OpenFOAM: The Open Source CFD Toolbox           |
|  \\    /   O peration     | Version:  2312                                  |
|   \\  /    A nd           | Website:  www.openfoam.com                      |
|    \\/     M anipulation  |                                                 |
\*---------------------------------------------------------------------------*/
FoamFile
{
    version     2.0;
    format      ascii;
    arch        "LSB;label=32;scalar=64";
    class       volScalarField;
    location    "0.008";
    object      p;
}
// * * * * * * * * * * * * * * * * * * * * * * * * * * * * * * * * * * * * * //

dimensions      [1 -1 -2 0 0 0 0];

internalField   nonuniform List<scalar> 
100
(
110315
110313
110308
110300
110284
110258
110213
110140
110027
109857
109608
109259
108784
108160
107367
106388
105214
103843
102280
100534
98623
96564.9
94381.1
92093.4
89723.4
87290.7
84813.7
82309.3
79792.1
77275.2
74769.8
72285.4
69830.2
67411
65033.7
62704
60425.3
58200.8
56033.4
53925.5
51879.4
49897
47980.2
46131.2
44352.2
42646.9
41017.2
39467.3
38002.3
36628.7
35354.6
34189.9
33145.6
32233.2
31462.6
30839.5
30359.9
30021.5
29794.5
29650.2
29563.4
29514
29487.4
29473.8
29467.3
29464.5
29463.6
29463.8
29464.5
29465.6
29466.8
29468.1
29469.6
29471.1
29472.6
29474.3
29476
29477.7
29479.6
29481.6
29483.7
29485.9
29488.3
29490.9
29493.7
29496.7
29499.9
29503.3
29507.4
29514.3
29528
29538.5
29437.1
28804.7
26777.1
22654
17194.3
12558.8
10082.9
9202.94
)
;

boundaryField
{
    sides
    {
        type            zeroGradient;
    }
    empty
    {
        type            empty;
    }
}


// ************************************************************************* //
