/*--------------------------------*- C++ -*----------------------------------*\
| =========                 |                                                 |
| \\      /  F ield         | OpenFOAM: The Open Source CFD Toolbox           |
|  \\    /   O peration     | Version:  2312                                  |
|   \\  /    A nd           | Website:  www.openfoam.com                      |
|    \\/     M anipulation  |                                                 |
\*---------------------------------------------------------------------------*/
FoamFile
{
    version     2.0;
    format      ascii;
    arch        "LSB;label=32;scalar=64";
    class       volScalarField;
    location    "0.008";
    object      p;
}
// * * * * * * * * * * * * * * * * * * * * * * * * * * * * * * * * * * * * * //

dimensions      [1 -1 -2 0 0 0 0];

internalField   nonuniform List<scalar> 
100
(
99185.5
99185.2
99184.5
99183.1
99180.3
99175
99164.9
99146.9
99115.4
99062.7
98977.4
98844.6
98645.3
98357.2
97955.9
97416.6
96716.7
95838
94768.5
93503.7
92046.8
90407.6
88601.6
86648
84568.5
82385.5
80121
77795.9
75429.5
73038.9
70639.5
68244.7
65866.6
63514.3
61195.9
58918.4
56687.7
54508.8
52385.8
50322.5
48322
46388.3
44523.9
42731.5
41014.7
39377.4
37824.5
36361.9
34997.1
33738.9
32599
31588.6
30718.9
29998.3
29429.2
29004.7
28707.6
28513.3
28394.5
28326.1
28288.8
28269.3
28259.5
28254.8
28252.9
28252.4
28252.8
28253.7
28254.9
28256.4
28257.9
28259.6
28261.3
28263.1
28265
28266.9
28269
28271.1
28273.4
28275.8
28278.4
28281.3
28284.3
28287.5
28291
28294.8
28299.3
28305.5
28313.7
28309
28205.1
27712.1
26230.9
23163.2
18773.6
14513.7
11755.1
10524.8
10100.8
9971.44
)
;

boundaryField
{
    sides
    {
        type            zeroGradient;
    }
    empty
    {
        type            empty;
    }
}


// ************************************************************************* //
