/*--------------------------------*- C++ -*----------------------------------*\
| =========                 |                                                 |
| \\      /  F ield         | OpenFOAM: The Open Source CFD Toolbox           |
|  \\    /   O peration     | Version:  2312                                  |
|   \\  /    A nd           | Website:  www.openfoam.com                      |
|    \\/     M anipulation  |                                                 |
\*---------------------------------------------------------------------------*/
FoamFile
{
    version     2.0;
    format      ascii;
    arch        "LSB;label=32;scalar=64";
    class       volScalarField;
    location    "0.008";
    object      rho;
}
// * * * * * * * * * * * * * * * * * * * * * * * * * * * * * * * * * * * * * //

dimensions      [1 -3 0 0 0 0 0];

internalField   nonuniform List<scalar> 
100
(
1.11598
1.11597
1.11593
1.11587
1.11576
1.11557
1.11524
1.11472
1.1139
1.11266
1.11086
1.10833
1.10488
1.10035
1.09457
1.08741
1.0788
1.06871
1.05714
1.04416
1.02987
1.01439
0.997848
0.980398
0.962182
0.943335
0.923985
0.90425
0.884237
0.864041
0.843745
0.823424
0.803141
0.782954
0.76291
0.743061
0.72344
0.704079
0.685008
0.666256
0.647851
0.629819
0.612186
0.594983
0.578241
0.56201
0.54632
0.531227
0.516799
0.503116
0.490281
0.478414
0.467649
0.45813
0.449978
0.443274
0.437987
0.4341
0.4313
0.429272
0.42773
0.426421
0.425131
0.423663
0.42182
0.419378
0.41608
0.41163
0.405729
0.398187
0.388958
0.378131
0.365972
0.352891
0.339385
0.325982
0.313162
0.301324
0.290753
0.281607
0.273941
0.267711
0.262806
0.259064
0.256303
0.254334
0.252982
0.252088
0.251526
0.251205
0.251073
0.251015
0.250334
0.246458
0.234033
0.208308
0.172839
0.140574
0.121736
0.114465
)
;

boundaryField
{
    sides
    {
        type            zeroGradient;
    }
    empty
    {
        type            empty;
    }
}


// ************************************************************************* //
