/*--------------------------------*- C++ -*----------------------------------*\
| =========                 |                                                 |
| \\      /  F ield         | OpenFOAM: The Open Source CFD Toolbox           |
|  \\    /   O peration     | Version:  2212                                  |
|   \\  /    A nd           | Website:  www.openfoam.com                      |
|    \\/     M anipulation  |                                                 |
\*---------------------------------------------------------------------------*/
FoamFile
{
    version     2.0;
    format      ascii;
    arch        "LSB;label=32;scalar=64";
    class       volScalarField;
    location    "0.008";
    object      T;
}
// * * * * * * * * * * * * * * * * * * * * * * * * * * * * * * * * * * * * * //

dimensions      [0 0 0 1 0 0 0];

internalField   nonuniform List<scalar> 
100
(
300
299.999
299.999
299.998
299.995
299.99
299.982
299.966
299.938
299.891
299.815
299.697
299.521
299.265
298.907
298.426
297.8
297.009
296.042
294.89
293.55
292.027
290.329
288.467
286.455
284.307
282.038
279.664
277.198
274.654
272.043
269.376
266.664
263.915
261.136
258.336
255.52
252.696
249.869
247.045
244.231
241.434
238.661
235.92
233.221
230.576
227.998
225.507
223.126
220.88
218.807
216.944
215.331
214.004
212.989
212.291
211.894
211.766
211.873
212.196
212.747
213.578
214.794
216.549
219.053
222.553
227.313
233.583
241.566
251.381
263.03
276.386
291.167
306.956
323.214
339.343
354.73
368.842
381.266
391.763
400.272
406.893
411.84
415.387
417.833
419.453
420.489
421.131
421.523
421.699
421.346
419.211
412.423
397.014
371.183
340.497
316.905
305.551
301.641
300.472
)
;

boundaryField
{
    sides
    {
        type            zeroGradient;
    }
    empty
    {
        type            empty;
    }
}


// ************************************************************************* //
