/*--------------------------------*- C++ -*----------------------------------*\
| =========                 |                                                 |
| \\      /  F ield         | OpenFOAM: The Open Source CFD Toolbox           |
|  \\    /   O peration     | Version:  2312                                  |
|   \\  /    A nd           | Website:  www.openfoam.com                      |
|    \\/     M anipulation  |                                                 |
\*---------------------------------------------------------------------------*/
FoamFile
{
    version     2.0;
    format      ascii;
    arch        "LSB;label=32;scalar=64";
    class       volScalarField;
    location    "0.008";
    object      T;
}
// * * * * * * * * * * * * * * * * * * * * * * * * * * * * * * * * * * * * * //

dimensions      [0 0 0 1 0 0 0];

internalField   nonuniform List<scalar> 
100
(
348.43
348.428
348.423
348.415
348.401
348.376
348.335
348.268
348.163
348.005
347.774
347.45
347.008
346.427
345.684
344.764
343.653
342.347
340.843
339.148
337.271
335.222
333.017
330.67
328.198
325.615
322.934
320.169
317.332
314.433
311.483
308.491
305.464
302.409
299.332
296.242
293.142
290.037
286.933
283.834
280.745
277.672
274.62
271.596
268.608
265.666
262.781
259.965
257.236
254.615
252.131
249.815
247.707
245.848
244.278
243.03
242.116
241.547
241.271
241.235
241.401
241.746
242.274
243.02
244.054
245.487
247.476
250.222
253.961
258.905
265.219
273.024
282.345
293.1
305.086
317.976
331.354
344.733
357.617
369.56
380.199
389.305
396.793
402.708
407.198
410.474
412.771
414.322
415.331
415.975
416.396
416.647
416.338
413.737
404.812
384.274
350.714
314.091
290.627
281.898
)
;

boundaryField
{
    sides
    {
        type            zeroGradient;
    }
    empty
    {
        type            empty;
    }
}


// ************************************************************************* //
