/*--------------------------------*- C++ -*----------------------------------*\
| =========                 |                                                 |
| \\      /  F ield         | OpenFOAM: The Open Source CFD Toolbox           |
|  \\    /   O peration     | Version:  2312                                  |
|   \\  /    A nd           | Website:  www.openfoam.com                      |
|    \\/     M anipulation  |                                                 |
\*---------------------------------------------------------------------------*/
FoamFile
{
    version     2.0;
    format      ascii;
    arch        "LSB;label=32;scalar=64";
    class       volScalarField;
    location    "0.008";
    object      thermo:e;
}
// * * * * * * * * * * * * * * * * * * * * * * * * * * * * * * * * * * * * * //

dimensions      [0 2 -2 0 0 0 0];

internalField   nonuniform List<scalar> 
100
(
247128
247127
247124
247118
247108
247091
247063
247016
246944
246834
246675
246451
246145
245743
245229
244593
243824
242921
241881
240708
239408
237990
236464
234839
233127
231337
229480
227564
225598
223589
221543
219468
217368
215248
213113
210967
208815
206658
204501
202347
200200
198063
195940
193836
191757
189709
187700
185738
183837
182011
180279
178665
177194
175897
174802
173932
173294
172897
172704
172679
172795
173035
173404
173924
174646
175646
177033
178948
181555
185000
189398
194830
201313
208786
217106
226045
235312
244571
253479
261729
269073
275355
280518
284594
287687
289943
291526
292593
293288
293731
294022
294194
293981
292191
286043
271885
248708
223352
207068
201001
)
;

boundaryField
{
    sides
    {
        type            zeroGradient;
    }
    empty
    {
        type            empty;
    }
}


// ************************************************************************* //
