/*--------------------------------*- C++ -*----------------------------------*\
| =========                 |                                                 |
| \\      /  F ield         | OpenFOAM: The Open Source CFD Toolbox           |
|  \\    /   O peration     | Version:  2312                                  |
|   \\  /    A nd           | Website:  www.openfoam.com                      |
|    \\/     M anipulation  |                                                 |
\*---------------------------------------------------------------------------*/
FoamFile
{
    version     2.0;
    format      ascii;
    arch        "LSB;label=32;scalar=64";
    class       volVectorField;
    location    "0.008";
    object      U;
}
// * * * * * * * * * * * * * * * * * * * * * * * * * * * * * * * * * * * * * //

dimensions      [0 1 -1 0 0 0 0];

internalField   nonuniform List<vector> 
100
(
(0.00565099 0 0)
(0.0114963 0 0)
(0.0226819 0 0)
(0.0434087 0 0)
(0.080565 0 0)
(0.144974 0 0)
(0.252889 0 0)
(0.427579 0 0)
(0.700725 0 0)
(1.11321 0 0)
(1.71491 0 0)
(2.56306 0 0)
(3.71925 0 0)
(5.24522 0 0)
(7.19805 0 0)
(9.62571 0 0)
(12.5635 0 0)
(16.0324 0 0)
(20.0384 0 0)
(24.5742 0 0)
(29.6212 0 0)
(35.1524 0 0)
(41.1352 0 0)
(47.5323 0 0)
(54.307 0 0)
(61.4242 0 0)
(68.8492 0 0)
(76.5496 0 0)
(84.4957 0 0)
(92.6603 0 0)
(101.019 0 0)
(109.549 0 0)
(118.231 0 0)
(127.048 0 0)
(135.981 0 0)
(145.012 0 0)
(154.131 0 0)
(163.323 0 0)
(172.575 0 0)
(181.873 0 0)
(191.202 0 0)
(200.548 0 0)
(209.891 0 0)
(219.211 0 0)
(228.482 0 0)
(237.671 0 0)
(246.744 0 0)
(255.655 0 0)
(264.343 0 0)
(272.733 0 0)
(280.732 0 0)
(288.226 0 0)
(295.087 0 0)
(301.18 0 0)
(306.383 0 0)
(310.617 0 0)
(313.853 0 0)
(316.14 0 0)
(317.673 0 0)
(318.644 0 0)
(319.227 0 0)
(319.56 0 0)
(319.742 0 0)
(319.839 0 0)
(319.889 0 0)
(319.916 0 0)
(319.931 0 0)
(319.941 0 0)
(319.948 0 0)
(319.953 0 0)
(319.959 0 0)
(319.966 0 0)
(319.973 0 0)
(319.981 0 0)
(319.991 0 0)
(320.002 0 0)
(320.014 0 0)
(320.028 0 0)
(320.043 0 0)
(320.06 0 0)
(320.079 0 0)
(320.1 0 0)
(320.123 0 0)
(320.148 0 0)
(320.175 0 0)
(320.205 0 0)
(320.236 0 0)
(320.271 0 0)
(320.314 0 0)
(320.394 0 0)
(320.543 0 0)
(320.544 0 0)
(318.844 0 0)
(310.398 0 0)
(285.809 0 0)
(235.861 0 0)
(161.382 0 0)
(82.8449 0 0)
(30.2769 0 0)
(8.62393 0 0)
)
;

boundaryField
{
    sides
    {
        type            zeroGradient;
    }
    empty
    {
        type            empty;
    }
}


// ************************************************************************* //
