/*--------------------------------*- C++ -*----------------------------------*\
| =========                 |                                                 |
| \\      /  F ield         | OpenFOAM: The Open Source CFD Toolbox           |
|  \\    /   O peration     | Version:  2312                                  |
|   \\  /    A nd           | Website:  www.openfoam.com                      |
|    \\/     M anipulation  |                                                 |
\*---------------------------------------------------------------------------*/
FoamFile
{
    version     2.0;
    format      ascii;
    arch        "LSB;label=32;scalar=64";
    class       volVectorField;
    location    "0.008";
    object      U;
}
// * * * * * * * * * * * * * * * * * * * * * * * * * * * * * * * * * * * * * //

dimensions      [0 1 -1 0 0 0 0];

internalField   nonuniform List<vector> 
100
(
(0.000616753 0 0)
(0.00139705 0 0)
(0.00306598 0 0)
(0.00652017 0 0)
(0.0134325 0 0)
(0.0268004 0 0)
(0.0517714 0 0)
(0.0968021 0 0)
(0.175156 0 0)
(0.306641 0 0)
(0.519353 0 0)
(0.851026 0 0)
(1.34947 0 0)
(2.07165 0 0)
(3.08106 0 0)
(4.44357 0 0)
(6.22224 0 0)
(8.47204 0 0)
(11.2354 0 0)
(14.5396 0 0)
(18.3954 0 0)
(22.7986 0 0)
(27.732 0 0)
(33.1685 0 0)
(39.0742 0 0)
(45.4114 0 0)
(52.1411 0 0)
(59.2246 0 0)
(66.6247 0 0)
(74.3068 0 0)
(82.2391 0 0)
(90.3907 0 0)
(98.7339 0 0)
(107.246 0 0)
(115.907 0 0)
(124.694 0 0)
(133.589 0 0)
(142.574 0 0)
(151.63 0 0)
(160.74 0 0)
(169.883 0 0)
(179.035 0 0)
(188.173 0 0)
(197.27 0 0)
(206.292 0 0)
(215.195 0 0)
(223.928 0 0)
(232.423 0 0)
(240.596 0 0)
(248.346 0 0)
(255.545 0 0)
(262.062 0 0)
(267.762 0 0)
(272.533 0 0)
(276.319 0 0)
(279.144 0 0)
(281.113 0 0)
(282.395 0 0)
(283.176 0 0)
(283.626 0 0)
(283.873 0 0)
(284.006 0 0)
(284.077 0 0)
(284.116 0 0)
(284.138 0 0)
(284.151 0 0)
(284.16 0 0)
(284.167 0 0)
(284.174 0 0)
(284.181 0 0)
(284.188 0 0)
(284.196 0 0)
(284.206 0 0)
(284.217 0 0)
(284.23 0 0)
(284.244 0 0)
(284.261 0 0)
(284.279 0 0)
(284.3 0 0)
(284.322 0 0)
(284.347 0 0)
(284.375 0 0)
(284.405 0 0)
(284.438 0 0)
(284.473 0 0)
(284.512 0 0)
(284.56 0 0)
(284.629 0 0)
(284.709 0 0)
(284.569 0 0)
(283.03 0 0)
(276.517 0 0)
(258.146 0 0)
(220.297 0 0)
(161.604 0 0)
(94.4943 0 0)
(41.8278 0 0)
(14.6174 0 0)
(4.49295 0 0)
(1.31391 0 0)
)
;

boundaryField
{
    sides
    {
        type            zeroGradient;
    }
    empty
    {
        type            empty;
    }
}


// ************************************************************************* //
