/*--------------------------------*- C++ -*----------------------------------*\
| =========                 |                                                 |
| \\      /  F ield         | OpenFOAM: The Open Source CFD Toolbox           |
|  \\    /   O peration     | Version:  2312                                  |
|   \\  /    A nd           | Website:  www.openfoam.com                      |
|    \\/     M anipulation  |                                                 |
\*---------------------------------------------------------------------------*/
FoamFile
{
    version     2.0;
    format      ascii;
    arch        "LSB;label=32;scalar=64";
    class       volVectorField;
    location    "1.20048019208e-08";
    object      U;
}
// * * * * * * * * * * * * * * * * * * * * * * * * * * * * * * * * * * * * * //

dimensions      [0 1 -1 0 0 0 0];

internalField   nonuniform List<vector> 
10114
(
(-4.80622e-16 -1.21146e-12 0)
(-4.80602e-16 7.57134e-13 0)
(-1.50459e-14 -3.59624e-13 0)
(1.84462e-14 0 0)
(0 4.27417e-14 0)
(0 0 0)
(0 0 0)
(-3.44819e-13 0 0)
(0 0 0)
(0 0 0)
(0 -2.40159e-14 0)
(-7.03373e-13 -2.42585e-14 0)
(0 0 0)
(0 0 0)
(3.44819e-13 0 0)
(0 0 0)
(-3.44819e-13 0 0)
(0 0 0)
(0 -2.40159e-14 0)
(-1.92294e-13 4.57434e-14 0)
(0 0 0)
(0 0 0)
(0 0 0)
(0 0 0)
(0 0 0)
(0 0 0)
(0 -2.40159e-14 0)
(-4.70962e-13 1.99084e-14 0)
(0 4.06981e-14 0)
(0 0 0)
(0 0 0)
(0 0 0)
(0 0 0)
(0 0 0)
(0 -2.40159e-14 0)
(-1.18723e-12 3.81958e-14 0)
(0 -7.41247e-13 0)
(0 2.84728e-13 0)
(0 3.36077e-14 0)
(0 0 0)
(4.82371e-12 9.59261e-13 0)
(-5.26223e-13 9.5378e-13 0)
(-9.39685e-13 -1.6327e-12 0)
(-7.89335e-12 -9.04446e-13 0)
(0 1.4968e-13 0)
(0 -2.53548e-13 0)
(1.33049e-13 5.32197e-13 0)
(0 5.32197e-13 0)
(-2.60045e-13 -2.60045e-13 0)
(-3.21897e-13 -9.83537e-14 0)
(0 -8.11521e-14 0)
(0 4.94876e-13 0)
(-1.29843e-13 0 0)
(1.29843e-13 -5.19373e-13 0)
(-5.07557e-13 2.53778e-13 0)
(6.14296e-13 -1.91967e-14 0)
(0 4.75456e-14 0)
(-2.41616e-13 -4.83232e-13 0)
(0 5.07153e-13 0)
(0 5.07153e-13 0)
(4.95614e-13 0 0)
(-5.99842e-13 -5.62352e-14 0)
(4.95494e-13 4.64526e-14 0)
(4.72123e-13 0 0)
(-1.23873e-13 0 0)
(0 0 0)
(0 0 0)
(0 5.49424e-14 0)
(-6.14173e-13 1.3435e-13 0)
(7.84394e-13 2.61465e-13 0)
(1.30732e-13 0 0)
(0 -5.22929e-13 0)
(0 -2.61465e-13 0)
(1.30619e-13 5.08078e-14 0)
(5.99374e-13 5.61913e-14 0)
(0 0 0)
(0 -5.10328e-13 0)
(-1.27582e-13 1.02066e-12 0)
(-2.55164e-13 0 0)
(0 1.81806e-13 0)
(0 5.48691e-14 0)
(4.98321e-13 -2.4916e-13 0)
(1.2458e-13 4.98321e-13 0)
(0 4.98321e-13 0)
(4.98321e-13 2.4916e-13 0)
(-5.16446e-13 -2.09806e-13 0)
(0 -1.60823e-13 0)
(-9.7373e-13 2.43432e-13 0)
(1.21716e-13 0 0)
(0 0 0)
(0 0 0)
(0 4.73038e-14 0)
(0 -2.23328e-14 0)
(0 0 0)
(2.95391e-13 0 0)
(-4.90396e-15 0 0)
(0 0 0)
(2.95391e-13 2.95391e-13 0)
(2.03986e-13 6.72145e-14 0)
(0 -2.17947e-14 0)
(0 2.88273e-13 0)
(-2.88273e-13 0 0)
(-1.06976e-14 5.76547e-13 0)
(0 -5.76547e-13 0)
(-2.88273e-13 0 0)
(3.49839e-13 -2.1865e-14 0)
(-3.4051e-13 6.38456e-14 0)
(0 -2.8149e-13 0)
(0 0 0)
(3.29872e-15 0 0)
(-2.8149e-13 0 0)
(-5.62981e-13 2.8149e-13 0)
(0 -2.13505e-14 0)
(0 2.07926e-14 0)
(-5.50039e-13 2.75019e-13 0)
(0 0 0)
(2.14859e-15 0 0)
(2.75019e-13 0 0)
(0 2.75019e-13 0)
(0 6.2579e-14 0)
(0 -9.66191e-14 0)
(0 2.63012e-13 0)
(0 5.26023e-13 0)
(-1.31506e-13 5.26024e-13 0)
(0 -2.63012e-13 0)
(-2.44102e-13 4.93147e-14 0)
(-6.03462e-13 5.65746e-14 0)
(0 0 0)
(1.28337e-13 -5.13348e-13 0)
(1.28337e-13 -5.13348e-13 0)
(-2.56674e-13 2.56674e-13 0)
(0 -8.02107e-14 0)
(5.89263e-13 -1.84145e-14 0)
(0 0 0)
(-1.25317e-13 0 0)
(-1.25317e-13 5.01269e-13 0)
(2.50635e-13 0 0)
(-5.01269e-13 -2.03641e-13 0)
(0 -1.79911e-14 0)
(0 2.44873e-13 0)
(0 0 0)
(0 -4.89746e-13 0)
(2.44873e-13 -4.89746e-13 0)
(0 1.6835e-13 0)
(0 0 0)
(2.91118e-13 -2.91118e-13 0)
(0 0 0)
(0 5.82236e-13 0)
(2.91118e-13 0 0)
(-5.82236e-13 2.91118e-13 0)
(0 -1.36462e-14 0)
(0 0 0)
(0 0 0)
(7.27795e-14 0 0)
(0 -5.82236e-13 0)
(0 0 0)
(-5.82236e-13 0 0)
(-5.68206e-13 1.42052e-13 0)
(2.84103e-13 0 0)
(-1.42052e-13 0 0)
(0 -5.68206e-13 0)
(0 0 0)
(0 -2.84103e-13 0)
(0 2.21955e-14 0)
(0 -2.84103e-13 0)
(0 2.81416e-13 0)
(0 0 0)
(0 0 0)
(0 0 0)
(0 0 0)
(5.54837e-13 -1.38709e-13 0)
(-2.77418e-13 0 0)
(1.38709e-13 0 0)
(6.93546e-14 5.54837e-13 0)
(2.77418e-13 0 0)
(0 0 0)
(-5.54837e-13 0 0)
(5.54837e-13 0 0)
(0 -5.49589e-13 0)
(0 5.54837e-13 0)
(1.38709e-13 0 0)
(0 0 0)
(0 1.38709e-13 0)
(-5.42082e-13 0 0)
(5.42082e-13 -2.71041e-13 0)
(0 0 0)
(-6.77602e-14 0 0)
(0 0 0)
(5.42082e-13 0 0)
(0 0 0)
(0 2.71041e-13 0)
(0 5.36955e-13 0)
(0 0 0)
(-1.3552e-13 0 0)
(0 0 0)
(0 0 0)
(-5.59318e-13 0 0)
(0 0 0)
(0 0 0)
(0 1.11864e-12 0)
(0 0 0)
(-5.59318e-13 -1.39829e-13 0)
(5.59318e-13 6.99147e-14 0)
(2.75296e-13 -2.75296e-13 0)
(0 -6.04794e-13 0)
(1.1845e-14 0 0)
(1.6591e-13 0 0)
(2.79659e-13 0 0)
(0 0 0)
(-5.4584e-13 -1.3646e-13 0)
(2.7292e-13 0 0)
(1.3646e-13 0 0)
(0 0 0)
(0 0 0)
(0 0 0)
(-5.4584e-13 -6.82301e-14 0)
(0 -2.68662e-13 0)
(0 0 0)
(-2.31191e-14 0 0)
(0 0 0)
(2.7292e-13 0 0)
(0 1.3646e-13 0)
(0 0 0)
(0 2.66499e-13 0)
(0 0 0)
(-6.66246e-14 0 0)
(-2.65895e-13 2.65895e-13 0)
(0 2.66499e-13 0)
(0 1.33249e-13 0)
(0 0 0)
(2.88166e-13 0 0)
(0 -3.61203e-13 0)
(0 0 0)
(0 -2.66499e-13 0)
(0 0 0)
(0 0 0)
(0 0 0)
(1.30186e-13 0 0)
(0 -5.20744e-13 0)
(2.59783e-13 0 0)
(0 0 0)
(-5.20744e-13 0 0)
(-5.1262e-13 0 0)
(0 0 0)
(2.20562e-14 3.52899e-13 0)
(0 0 0)
(0 0 0)
(0 0 0)
(0 0 0)
(0 0 0)
(1.38661e-13 -5.54646e-13 0)
(-1.38662e-13 -5.54646e-13 0)
(0 -2.51756e-13 0)
(-5.54646e-13 0 0)
(0 0 0)
(-2.77323e-13 0 0)
(0 5.06125e-13 0)
(0 0 0)
(0 -2.71024e-13 0)
(0 0 0)
(0 0 0)
(0 2.7015e-13 0)
(0 0 0)
(-1.3532e-13 0 0)
(0 0 0)
(5.41281e-13 0 0)
(-5.41281e-13 0 0)
(0 2.70641e-13 0)
(0 0 0)
(-1.29451e-13 0 0)
(2.64493e-13 2.64493e-13 0)
(0 1.32083e-13 0)
(5.03652e-13 0 0)
(2.63794e-13 -2.63794e-13 0)
(0 -5.28545e-13 0)
(0 -5.28545e-13 0)
(0 0 0)
(0 0 0)
(5.28545e-13 0 0)
(0 -2.64273e-13 0)
(1.20577e-13 -4.82308e-13 0)
(1.26405e-13 0 0)
(-2.5827e-13 -2.5827e-13 0)
(0 1.28975e-13 0)
(4.92073e-13 -1.23018e-13 0)
(5.15459e-13 2.5773e-13 0)
(1.29099e-13 0 0)
(0 1.03279e-12 0)
(0 -4.68786e-13 0)
(-5.16395e-13 0 0)
(-5.16395e-13 0 0)
(0 2.58197e-13 0)
(0 -4.7122e-13 0)
(0 0 0)
(2.52333e-13 5.04665e-13 0)
(0 0 0)
(5.45279e-13 -1.3632e-13 0)
(0 -2.7264e-13 0)
(1.3632e-13 0 0)
(0 5.27701e-13 0)
(0 -2.68673e-13 0)
(0 0 0)
(0 0 0)
(2.7264e-13 2.7264e-13 0)
(0 5.45279e-13 0)
(0 0 0)
(2.67374e-13 -2.67374e-13 0)
(0 1.3632e-13 0)
(0 0 0)
(0 0 0)
(0 -5.3214e-13 0)
(-1.28746e-13 5.14986e-13 0)
(0 -2.62199e-13 0)
(0 1.249e-13 0)
(0 0 0)
(0 0 0)
(1.33035e-13 -5.3214e-13 0)
(0 5.3214e-13 0)
(0 -2.60932e-13 0)
(-5.3214e-13 0 0)
(-5.19619e-13 0 0)
(2.59809e-13 -2.59809e-13 0)
(1.29905e-13 -5.19619e-13 0)
(0 0 0)
(2.5603e-13 0 0)
(0 -1.21961e-13 0)
(0 -2.59241e-13 0)
(-2.59809e-13 -2.59809e-13 0)
(-1.29905e-13 0 0)
(0 0 0)
(0 2.54792e-13 0)
(0 0 0)
(-5.07674e-13 0 0)
(-2.53837e-13 0 0)
(0 0 0)
(0 4.91308e-13 0)
(0 0 0)
(0 0 0)
(0 0 0)
(2.53837e-13 2.53837e-13 0)
(1.26918e-13 5.07674e-13 0)
(0 0 0)
(-2.48935e-13 -2.48935e-13 0)
(0 0 0)
(-5.46078e-13 2.73039e-13 0)
(0 -2.57876e-13 0)
(0 0 0)
(1.3652e-13 0 0)
(0 0 0)
(5.46078e-13 -1.3652e-13 0)
(0 0 0)
(0 -2.73039e-13 0)
(-1.33878e-13 5.35513e-13 0)
(1.3108e-13 5.24318e-13 0)
(0 0 0)
(-5.46078e-13 -1.3652e-13 0)
(5.3292e-13 -1.3323e-13 0)
(2.51662e-13 2.51662e-13 0)
(1.3323e-13 0 0)
(-1.3323e-13 0 0)
(2.57995e-13 -2.57995e-13 0)
(0 0 0)
(0 0 0)
(0 2.6646e-13 0)
(2.61304e-13 -5.22609e-13 0)
(-1.27921e-13 -5.11684e-13 0)
(5.3292e-13 0 0)
(0 1.3323e-13 0)
(-5.20381e-13 0 0)
(-4.91481e-13 0 0)
(0 0 0)
(0 0 0)
(0 0 0)
(0 0 0)
(0 1.30095e-13 0)
(0 0 0)
(0 0 0)
(-1.24911e-13 0 0)
(-5.20381e-13 0 0)
(0 0 0)
(0 1.27104e-13 0)
(0 -4.80182e-13 0)
(-1.27104e-13 0 0)
(0 0 0)
(0 -2.46133e-13 0)
(0 -1.27104e-13 0)
(5.08418e-13 0 0)
(0 2.54209e-13 0)
(1.24645e-13 0 0)
(-2.44079e-13 4.88158e-13 0)
(-2.54209e-13 -2.54209e-13 0)
(-5.08418e-13 -1.27104e-13 0)
(0 0 0)
(0 0 0)
(-1.45631e-13 5.82524e-13 0)
(0 0 0)
(2.91262e-13 -2.91262e-13 0)
(-5.82524e-13 0 0)
(0 -2.73058e-14 0)
(0 2.91262e-13 0)
(0 0 0)
(-7.28155e-14 -5.82524e-13 0)
(0 0 0)
(0 -2.76997e-13 0)
(-5.82524e-13 0 0)
(5.68487e-13 -1.42122e-13 0)
(0 0 0)
(1.42122e-13 -5.68487e-13 0)
(0 0 0)
(0 0 0)
(-5.68487e-13 -2.84244e-13 0)
(0 -1.77652e-14 0)
(5.68487e-13 0 0)
(0 0 0)
(0 -5.68487e-13 0)
(1.42122e-13 0 0)
(0 0 0)
(0 1.42122e-13 0)
(0 -1.38778e-13 0)
(0 0 0)
(0 5.55111e-13 0)
(0 0 0)
(0 5.55111e-13 0)
(5.55111e-13 -2.77556e-13 0)
(5.55111e-13 -8.67361e-15 0)
(-5.55111e-13 0 0)
(-2.76894e-13 0 0)
(6.93889e-14 5.55111e-13 0)
(1.38778e-13 0 0)
(0 0 0)
(0 1.38778e-13 0)
(-5.4235e-13 0 0)
(-5.4235e-13 0 0)
(1.35587e-13 0 0)
(0 5.4235e-13 0)
(-2.71175e-13 0 0)
(-5.4235e-13 0 0)
(0 0 0)
(0 0 0)
(2.70528e-13 5.41056e-13 0)
(0 0 0)
(0 0 0)
(2.57894e-13 -2.57894e-13 0)
(0 0 0)
(5.81381e-13 -1.45345e-13 0)
(-2.9069e-13 0 0)
(0 -5.81381e-13 0)
(0 0 0)
(0 0 0)
(5.78622e-13 2.89311e-13 0)
(-5.81381e-13 2.27102e-15 0)
(0 0 0)
(0 0 0)
(0 0 0)
(0 5.81381e-13 0)
(-2.9069e-13 0 0)
(5.81381e-13 1.45345e-13 0)
(0 0 0)
(0 0 0)
(0 5.67372e-13 0)
(0 0 0)
(0 0 0)
(5.64679e-13 -2.8234e-13 0)
(0 8.86518e-15 0)
(0 0 0)
(0 0 0)
(0 0 0)
(1.41843e-13 -5.67372e-13 0)
(0 2.83686e-13 0)
(0 0 0)
(0 0 0)
(-2.77011e-13 -2.77011e-13 0)
(1.38505e-13 0 0)
(0 0 0)
(-2.77011e-13 -5.54022e-13 0)
(0 2.75696e-13 0)
(0 1.73132e-14 0)
(0 2.70578e-13 0)
(-2.77011e-13 5.54022e-13 0)
(0 0 0)
(0 0 0)
(-2.77011e-13 -2.77011e-13 0)
(0 0 0)
(0 0 0)
(0 0 0)
(0 0 0)
(0 0 0)
(0 0 0)
(0 0 0)
(-5.41286e-13 -1.0572e-14 0)
(-5.28715e-13 0 0)
(0 5.41286e-13 0)
(0 0 0)
(-1.35321e-13 0 0)
(0 0 0)
(0 0 0)
(1.09196e-12 -1.36495e-13 0)
(-2.71795e-13 -2.71795e-13 0)
(1.36495e-13 -5.45978e-13 0)
(0 0 0)
(2.72989e-13 0 0)
(0 -1.36495e-13 0)
(0 2.56466e-13 0)
(-2.6749e-13 2.6749e-13 0)
(0 -5.14616e-13 0)
(1.36495e-13 0 0)
(2.72989e-13 0 0)
(5.45978e-13 1.36495e-13 0)
(-5.32822e-13 1.33206e-13 0)
(2.65245e-13 0 0)
(0 0 0)
(0 -5.32822e-13 0)
(0 0 0)
(0 -1.33206e-13 0)
(0 -1.25143e-13 0)
(2.61044e-13 2.61044e-13 0)
(-1.25554e-13 5.02216e-13 0)
(0 -5.32822e-13 0)
(0 0 0)
(-5.32822e-13 -1.33206e-13 0)
(0 -1.30071e-13 0)
(0 0 0)
(1.30071e-13 5.20285e-13 0)
(0 0 0)
(0 0 0)
(-1.04057e-12 1.30071e-13 0)
(0 0 0)
(-2.54902e-13 -2.54902e-13 0)
(1.226e-13 0 0)
(1.30071e-13 -5.20285e-13 0)
(0 0 0)
(0 1.30071e-13 0)
(0 0 0)
(0 0 0)
(-1.27081e-13 -5.08325e-13 0)
(0 0 0)
(-2.54162e-13 -2.54162e-13 0)
(-5.08325e-13 -1.27081e-13 0)
(0 0 0)
(-2.49042e-13 0 0)
(0 4.79126e-13 0)
(0 -5.08325e-13 0)
(2.54162e-13 2.54162e-13 0)
(0 0 0)
(0 -1.3627e-13 0)
(-2.7254e-13 0 0)
(0 -5.4508e-13 0)
(0 0 0)
(-2.67958e-13 0 0)
(0 1.28459e-13 0)
(5.41519e-13 -1.3538e-13 0)
(0 2.7254e-13 0)
(1.3627e-13 5.4508e-13 0)
(1.3627e-13 0 0)
(0 -2.65578e-13 0)
(-1.09016e-12 1.3627e-13 0)
(0 -1.32986e-13 0)
(2.65973e-13 0 0)
(-1.32986e-13 0 0)
(0 0 0)
(5.23002e-13 2.61501e-13 0)
(0 0 0)
(0 1.32118e-13 0)
(-2.65973e-13 0 0)
(0 0 0)
(0 0 0)
(0 0 0)
(5.31945e-13 1.32986e-13 0)
(5.19429e-13 0 0)
(-2.59714e-13 2.59714e-13 0)
(0 5.19429e-13 0)
(0 0 0)
(-2.55348e-13 -2.55348e-13 0)
(4.89654e-13 -1.22413e-13 0)
(-5.16036e-13 0 0)
(0 -2.59714e-13 0)
(-1.29857e-13 0 0)
(0 5.19429e-13 0)
(-2.5308e-13 2.5308e-13 0)
(0 0 0)
(-5.07488e-13 -1.26872e-13 0)
(0 0 0)
(-1.26872e-13 5.07488e-13 0)
(1.24374e-13 0 0)
(2.49478e-13 2.49478e-13 0)
(-9.56795e-13 1.19599e-13 0)
(5.04173e-13 0 0)
(0 5.07488e-13 0)
(0 -5.07488e-13 0)
(0 0 0)
(0 0 0)
(0 1.26872e-13 0)
(0 -1.3617e-13 0)
(0 0 0)
(1.3617e-13 0 0)
(-1.3617e-13 0 0)
(-2.62615e-13 -2.62615e-13 0)
(0 0 0)
(0 -1.3617e-13 0)
(0 2.72341e-13 0)
(1.3617e-13 0 0)
(-1.3617e-13 0 0)
(0 0 0)
(5.08353e-13 -1.27088e-13 0)
(5.31557e-13 1.32889e-13 0)
(0 0 0)
(0 0 0)
(1.32889e-13 0 0)
(-2.56287e-13 2.56287e-13 0)
(-5.31557e-13 1.32889e-13 0)
(-5.31557e-13 0 0)
(0 -2.65778e-13 0)
(1.32889e-13 5.31557e-13 0)
(0 -5.31557e-13 0)
(2.62336e-13 -2.62336e-13 0)
(0 1.24026e-13 0)
(-5.19049e-13 -1.29762e-13 0)
(0 2.59525e-13 0)
(1.29762e-13 0 0)
(0 -5.19049e-13 0)
(0 2.50257e-13 0)
(5.19049e-13 -1.29762e-13 0)
(5.19049e-13 2.59525e-13 0)
(0 2.59525e-13 0)
(0 0 0)
(2.59525e-13 -5.19049e-13 0)
(-5.12326e-13 2.56163e-13 0)
(-4.84431e-13 -1.21108e-13 0)
(5.07117e-13 0 0)
(-5.07117e-13 0 0)
(0 5.07117e-13 0)
(-1.26779e-13 5.07117e-13 0)
(2.44504e-13 0 0)
(-5.07117e-13 -2.53559e-13 0)
(-5.07117e-13 0 0)
(-2.53559e-13 2.53559e-13 0)
(0 0 0)
(-1.26779e-13 0 0)
(0 -5.00548e-13 0)
(4.73294e-13 1.18324e-13 0)
(0 0 0)
(0 0 0)
(-1.38205e-13 -5.5282e-13 0)
(0 0 0)
(0 2.74002e-13 0)
(0 0 0)
(-4.98985e-13 0 0)
(2.65073e-13 0 0)
(0 0 0)
(0 -5.5282e-13 0)
(0 0 0)
(5.14438e-13 0 0)
(5.39499e-13 -1.34875e-13 0)
(5.24333e-13 0 0)
(-1.34875e-13 5.39499e-13 0)
(0 -5.38296e-13 0)
(0 0 0)
(0 0 0)
(0 0 0)
(-2.58686e-13 5.17372e-13 0)
(0 0 0)
(0 0 0)
(0 -2.64901e-13 0)
(0 1.2551e-13 0)
(-5.26805e-13 0 0)
(0 0 0)
(1.31701e-13 0 0)
(-1.31408e-13 5.2563e-13 0)
(0 -2.61108e-13 0)
(5.17505e-13 -1.29376e-13 0)
(-4.75504e-13 1.18876e-13 0)
(0 2.52599e-13 0)
(0 5.26805e-13 0)
(0 -5.26805e-13 0)
(0 2.58669e-13 0)
(0 0 0)
(5.14694e-13 0 0)
(0 0 0)
(0 5.14694e-13 0)
(1.28387e-13 0 0)
(2.55105e-13 0 0)
(0 0 0)
(4.64572e-13 0 0)
(0 -4.93585e-13 0)
(0 0 0)
(1.28674e-13 5.14694e-13 0)
(0 2.52722e-13 0)
(0 0 0)
(5.59795e-13 0 0)
(0 0 0)
(-1.39949e-13 5.59795e-13 0)
(0 0 0)
(2.79897e-13 0 0)
(-5.51052e-13 0 0)
(5.57264e-13 0 0)
(0 0 0)
(0 -3.28313e-13 0)
(-4.68333e-14 -3.74667e-13 0)
(0 -3.4494e-13 0)
(0 0 0)
(0 0 0)
(-5.46306e-13 -1.36576e-13 0)
(0 0 0)
(0 0 0)
(0 0 0)
(0 -2.73153e-13 0)
(5.37773e-13 1.34443e-13 0)
(0 -6.79795e-14 0)
(0 0 0)
(-3.20402e-13 0 0)
(2.28524e-14 3.65639e-13 0)
(-1.68314e-13 0 0)
(-2.63124e-13 0 0)
(-5.46306e-13 1.36576e-13 0)
(-5.33451e-13 0 0)
(0 0 0)
(0 -5.33451e-13 0)
(0 -1.0669e-12 0)
(0 -2.66726e-13 0)
(0 1.3128e-13 0)
(0 -6.638e-14 0)
(0 -2.66726e-13 0)
(1.56432e-13 6.25726e-13 0)
(4.46294e-14 0 0)
(1.64354e-13 0 0)
(0 0 0)
(0 1.33363e-13 0)
(0 -1.30297e-13 0)
(0 0 0)
(0 5.21188e-13 0)
(0 5.21188e-13 0)
(2.60594e-13 2.60594e-13 0)
(0 0 0)
(0 -6.4854e-14 0)
(0 0 0)
(-1.52835e-13 0 0)
(0 -3.48828e-13 0)
(0 -6.42303e-13 0)
(0 5.02052e-13 0)
(0 0 0)
(-5.4488e-13 0 0)
(0 2.62159e-13 0)
(1.3622e-13 0 0)
(0 0 0)
(0 0 0)
(0 1.3622e-13 0)
(5.07509e-13 1.26877e-13 0)
(5.37819e-13 0 0)
(-1.3622e-13 -5.4488e-13 0)
(0 0 0)
(-2.7244e-13 2.7244e-13 0)
(0 0 0)
(0 -1.32938e-13 0)
(2.55842e-13 2.55842e-13 0)
(1.32938e-13 0 0)
(0 0 0)
(0 0 0)
(5.31751e-13 0 0)
(0 -1.2382e-13 0)
(0 2.6243e-13 0)
(1.32938e-13 0 0)
(1.32938e-13 5.31751e-13 0)
(0 -2.65875e-13 0)
(0 1.32938e-13 0)
(-5.19239e-13 -1.2981e-13 0)
(-2.49822e-13 -4.99645e-13 0)
(0 0 0)
(-2.59619e-13 -5.19239e-13 0)
(2.59619e-13 2.59619e-13 0)
(0 0 0)
(-4.83627e-13 0 0)
(2.56255e-13 0 0)
(1.2981e-13 -5.19239e-13 0)
(-1.2981e-13 -5.19239e-13 0)
(0 -2.5962e-13 0)
(-5.19239e-13 1.2981e-13 0)
(0 -1.26826e-13 0)
(0 4.88158e-13 0)
(1.26826e-13 -5.07302e-13 0)
(1.26826e-13 5.07303e-13 0)
(0 -2.53651e-13 0)
(5.07302e-13 0 0)
(0 -1.18127e-13 0)
(0 -5.00728e-13 0)
(-1.26826e-13 5.07302e-13 0)
(1.26826e-13 5.07302e-13 0)
(-2.53651e-13 2.53651e-13 0)
(0 1.26826e-13 0)
(0 0 0)
(0 0 0)
(-1.33649e-13 0 0)
(1.3627e-13 -1.09016e-12 0)
(-2.7254e-13 2.7254e-13 0)
(0 0 0)
(0 1.3627e-13 0)
(-2.67279e-13 -2.67279e-13 0)
(1.3627e-13 0 0)
(-1.3627e-13 5.4508e-13 0)
(2.7254e-13 0 0)
(-5.4508e-13 1.3627e-13 0)
(-5.00439e-13 0 0)
(-2.58613e-13 2.58613e-13 0)
(0 -1.04343e-12 0)
(0 0 0)
(2.65973e-13 0 0)
(0 1.32986e-13 0)
(0 0 0)
(0 -2.60839e-13 0)
(0 0 0)
(1.32986e-13 0 0)
(-2.65973e-13 0 0)
(0 1.32986e-13 0)
(4.88664e-13 0 0)
(0 0 0)
(0 1.01887e-12 0)
(-1.29857e-13 0 0)
(0 -2.59714e-13 0)
(0 -1.29857e-13 0)
(0 0 0)
(0 0 0)
(0 5.19429e-13 0)
(0 -5.19429e-13 0)
(0 -2.59714e-13 0)
(0 0 0)
(0 0 0)
(0 0 0)
(0 -4.97726e-13 0)
(1.26872e-13 0 0)
(-2.53744e-13 2.53744e-13 0)
(0 1.26872e-13 0)
(0 -1.26872e-13 0)
(0 4.97692e-13 0)
(0 0 0)
(-1.26872e-13 -5.07488e-13 0)
(0 0 0)
(0 1.26872e-13 0)
(0 0 0)
(0 0 0)
(0 0 0)
(-1.36245e-13 0 0)
(2.55324e-13 0 0)
(0 0 0)
(0 0 0)
(0 0 0)
(0 0 0)
(1.36245e-13 0 0)
(2.7249e-13 -2.7249e-13 0)
(0 1.35947e-13 0)
(-5.22702e-13 -1.30676e-13 0)
(2.65924e-13 0 0)
(1.32962e-13 0 0)
(0 -5.31848e-13 0)
(-4.98344e-13 4.98344e-13 0)
(0 0 0)
(-5.31848e-13 0 0)
(2.55355e-13 0 0)
(0 5.31848e-13 0)
(0 -5.31848e-13 0)
(0 0 0)
(5.30684e-13 0 0)
(5.10403e-13 1.27601e-13 0)
(-2.59667e-13 -5.19334e-13 0)
(0 5.19334e-13 0)
(0 0 0)
(0 -4.86618e-13 0)
(0 0 0)
(-5.19334e-13 2.59667e-13 0)
(-2.49346e-13 7.48039e-13 0)
(0 5.19334e-13 0)
(0 0 0)
(0 -2.59667e-13 0)
(0 0 0)
(0 0 0)
(5.07395e-13 2.53698e-13 0)
(-1.26849e-13 0 0)
(0 5.07395e-13 0)
(4.75431e-13 0 0)
(-5.07395e-13 0 0)
(5.07395e-13 0 0)
(2.43614e-13 0 0)
(0 0 0)
(0 -5.07395e-13 0)
(0 0 0)
(0 0 0)
(0 2.72341e-13 0)
(-2.72341e-13 0 0)
(-1.3617e-13 0 0)
(1.3617e-13 0 0)
(-2.72341e-13 0 0)
(-5.44682e-13 2.72341e-13 0)
(5.44682e-13 0 0)
(2.69391e-13 0 0)
(0 4.94609e-13 0)
(0 0 0)
(0 0 0)
(0 -1.3617e-13 0)
(5.31557e-13 0 0)
(0 2.65779e-13 0)
(0 -5.31557e-13 0)
(-1.32889e-13 0 0)
(2.65779e-13 -2.65779e-13 0)
(5.31557e-13 -1.32889e-13 0)
(-5.31557e-13 0 0)
(-2.62899e-13 0 0)
(0 0 0)
(0 -5.31557e-13 0)
(0 -2.63472e-13 0)
(0 0 0)
(0 -1.29762e-13 0)
(-2.59525e-13 0 0)
(1.29762e-13 5.1905e-13 0)
(1.29762e-13 -5.1905e-13 0)
(-2.59525e-13 -2.59525e-13 0)
(5.1905e-13 0 0)
(-5.1905e-13 -1.29762e-13 0)
(0 2.56713e-13 0)
(0 -4.71333e-13 0)
(0 0 0)
(-2.57272e-13 0 0)
(0 1.29762e-13 0)
(0 1.26779e-13 0)
(0 2.53559e-13 0)
(0 0 0)
(-1.26779e-13 5.07118e-13 0)
(2.53559e-13 0 0)
(0 0 0)
(0 1.26779e-13 0)
(0 -2.50812e-13 0)
(0 4.60498e-13 0)
(-1.26779e-13 5.07118e-13 0)
(-2.51358e-13 -2.51358e-13 0)
(0 -1.26779e-13 0)
(0 -1.37176e-13 0)
(2.67561e-13 -2.67561e-13 0)
(0 5.44781e-13 0)
(0 -5.45978e-13 0)
(0 2.70364e-13 0)
(5.44092e-13 -1.36023e-13 0)
(-1.03797e-12 1.29747e-13 0)
(0 2.68779e-13 0)
(1.37707e-13 -5.5083e-13 0)
(1.37707e-13 0 0)
(0 0 0)
(5.14937e-13 0 0)
(0 0 0)
(-2.61113e-13 2.61113e-13 0)
(0 0 0)
(-1.33206e-13 0 0)
(0 0 0)
(0 2.65491e-13 0)
(0 -1.2662e-13 0)
(0 -2.62302e-13 0)
(0 0 0)
(-1.34389e-13 5.37557e-13 0)
(-2.63916e-13 0 0)
(5.02529e-13 1.25632e-13 0)
(0 1.30721e-13 0)
(2.5497e-13 2.5497e-13 0)
(1.29786e-13 0 0)
(-1.30071e-13 0 0)
(0 0 0)
(5.18488e-13 -2.59244e-13 0)
(0 0 0)
(0 -2.56131e-13 0)
(-1.31227e-13 5.24908e-13 0)
(1.31227e-13 0 0)
(0 5.15412e-13 0)
(0 1.22676e-13 0)
(0 -1.27716e-13 0)
(0 -4.98216e-13 0)
(0 0 0)
(1.27081e-13 0 0)
(0 2.51719e-13 0)
(0 1.26642e-13 0)
(-4.83195e-13 -1.20799e-13 0)
(5.00485e-13 -2.50243e-13 0)
(0 0 0)
(1.2821e-13 0 0)
(-2.51782e-13 0 0)
(-4.79424e-13 1.19856e-13 0)
(0 -1.36195e-13 0)
(0 2.55752e-13 0)
(-1.36195e-13 0 0)
(-2.7239e-13 1.08956e-12 0)
(2.7239e-13 0 0)
(0 0 0)
(-5.44781e-13 1.36195e-13 0)
(0 0 0)
(0 5.44781e-13 0)
(0 0 0)
(-2.62114e-13 0 0)
(0 0 0)
(-5.31654e-13 0 0)
(0 2.4959e-13 0)
(1.32913e-13 -5.31654e-13 0)
(1.32913e-13 -5.31654e-13 0)
(0 0 0)
(0 1.3035e-13 0)
(0 1.32913e-13 0)
(0 2.65827e-13 0)
(-1.32913e-13 0 0)
(0 0 0)
(2.55798e-13 0 0)
(-5.31654e-13 0 0)
(0 0 0)
(-2.43717e-13 0 0)
(-1.29786e-13 5.19144e-13 0)
(0 0 0)
(0 0 0)
(5.09131e-13 -1.27283e-13 0)
(0 -1.29786e-13 0)
(0 5.19144e-13 0)
(-1.29786e-13 -5.19144e-13 0)
(1.29786e-13 5.19144e-13 0)
(2.49779e-13 2.49779e-13 0)
(0 0 0)
(5.0721e-13 0 0)
(4.76229e-13 4.76229e-13 0)
(1.26802e-13 -5.0721e-13 0)
(-1.26802e-13 0 0)
(2.53605e-13 -2.53605e-13 0)
(0 0 0)
(0 0 0)
(-2.53605e-13 -2.53605e-13 0)
(0 0 0)
(1.26802e-13 0 0)
(0 0 0)
(0 0 0)
(1.09196e-12 -1.36495e-13 0)
(0 2.72989e-13 0)
(0 0 0)
(1.36495e-13 0 0)
(2.71795e-13 0 0)
(0 0 0)
(5.45978e-13 1.36495e-13 0)
(-2.72989e-13 0 0)
(0 5.45978e-13 0)
(0 0 0)
(0 0 0)
(0 0 0)
(-5.32822e-13 1.33206e-13 0)
(0 0 0)
(1.33206e-13 5.32822e-13 0)
(0 0 0)
(0 2.65246e-13 0)
(0 0 0)
(0 0 0)
(5.32822e-13 2.66411e-13 0)
(-1.33206e-13 0 0)
(-1.253e-13 0 0)
(-5.29544e-13 0 0)
(4.95019e-13 1.23755e-13 0)
(0 -1.30071e-13 0)
(2.60143e-13 0 0)
(0 5.20285e-13 0)
(0 0 0)
(-2.59004e-13 0 0)
(-1.04057e-12 1.30071e-13 0)
(-5.20285e-13 0 0)
(-5.20285e-13 0 0)
(0 0 0)
(-1.22352e-13 -4.89406e-13 0)
(2.58542e-13 -2.58542e-13 0)
(-4.83372e-13 0 0)
(0 0 0)
(0 2.54162e-13 0)
(0 5.08325e-13 0)
(0 0 0)
(0 0 0)
(-5.08325e-13 -1.27081e-13 0)
(5.08325e-13 -1.27081e-13 0)
(0 -2.54162e-13 0)
(1.27081e-13 5.08325e-13 0)
(0 0 0)
(0 0 0)
(4.7226e-13 1.18065e-13 0)
(0 -1.28676e-13 0)
(2.65137e-13 -5.30274e-13 0)
(0 0 0)
(0 0 0)
(0 2.7244e-13 0)
(0 0 0)
(0 0 0)
(2.65484e-13 2.65484e-13 0)
(-1.3622e-13 0 0)
(0 0 0)
(0 0 0)
(0 0 0)
(5.02301e-13 1.25575e-13 0)
(-2.58748e-13 0 0)
(1.31674e-13 0 0)
(0 0 0)
(2.65875e-13 -2.65875e-13 0)
(0 1.32938e-13 0)
(5.31751e-13 0 0)
(2.59087e-13 -5.18174e-13 0)
(0 5.31751e-13 0)
(1.32938e-13 -5.31751e-13 0)
(-2.65875e-13 0 0)
(-5.2943e-13 0 0)
(0 -1.22621e-13 0)
(0 0 0)
(0 0 0)
(-1.2981e-13 0 0)
(-5.19239e-13 2.5962e-13 0)
(5.19239e-13 0 0)
(0 0 0)
(-2.52991e-13 -2.52991e-13 0)
(0 -5.19239e-13 0)
(0 0 0)
(0 0 0)
(0 0 0)
(4.79207e-13 1.19802e-13 0)
(2.46852e-13 0 0)
(-1.2562e-13 5.02482e-13 0)
(0 0 0)
(2.53651e-13 0 0)
(-5.07302e-13 -1.26826e-13 0)
(0 0 0)
(0 4.9435e-13 0)
(1.26826e-13 0 0)
(-2.53651e-13 0 0)
(2.53651e-13 0 0)
(-5.05089e-13 1.26272e-13 0)
(0 -1.36287e-13 0)
(0 -2.5591e-13 0)
(-1.36287e-13 0 0)
(0 0 0)
(0 0 0)
(0 1.36287e-13 0)
(0 0 0)
(-2.72573e-13 0 0)
(1.3579e-13 0 0)
(1.33087e-13 5.32347e-13 0)
(0 2.72573e-13 0)
(0 1.36287e-13 0)
(0 0 0)
(0 2.49743e-13 0)
(1.33003e-13 5.3201e-13 0)
(1.33003e-13 -5.3201e-13 0)
(-5.11921e-13 0 0)
(-5.3201e-13 -1.33003e-13 0)
(0 0 0)
(0 0 0)
(-1.32518e-13 0 0)
(-1.2988e-13 0 0)
(0 0 0)
(0 0 0)
(0 0 0)
(-2.43867e-13 4.87734e-13 0)
(-1.29873e-13 -5.19492e-13 0)
(1.29873e-13 0 0)
(-4.99876e-13 0 0)
(5.19492e-13 0 0)
(0 1.29873e-13 0)
(0 -2.59746e-13 0)
(1.294e-13 0 0)
(0 5.07296e-13 0)
(-2.59746e-13 0 0)
(0 0 0)
(0 -1.26887e-13 0)
(4.76522e-13 0 0)
(0 0 0)
(0 0 0)
(9.76769e-13 -2.44192e-13 0)
(0 -1.26887e-13 0)
(0 -1.26887e-13 0)
(0 0 0)
(0 -5.057e-13 0)
(0 0 0)
(0 0 0)
(-5.0755e-13 1.26887e-13 0)
(0 1.30424e-13 0)
(0 -2.75211e-13 0)
(1.37605e-13 0 0)
(0 5.50422e-13 0)
(0 0 0)
(-5.50422e-13 -1.37605e-13 0)
(0 0 0)
(-2.75203e-13 0 0)
(0 0 0)
(0 5.36183e-13 0)
(0 2.72828e-13 0)
(5.40757e-13 0 0)
(-5.09124e-13 -1.27281e-13 0)
(2.68579e-13 0 0)
(0 5.37158e-13 0)
(-1.3429e-13 -5.37158e-13 0)
(4.91938e-13 -2.45969e-13 0)
(-5.37159e-13 0 0)
(0 0 0)
(2.68571e-13 0 0)
(1.2808e-13 0 0)
(0 -5.23263e-13 0)
(0 -5.32508e-13 0)
(0 -1.31932e-13 0)
(9.94289e-13 0 0)
(0 0 0)
(0 0 0)
(0 0 0)
(-4.80363e-13 0 0)
(0 0 0)
(0 -1.3113e-13 0)
(-2.62252e-13 2.62252e-13 0)
(0 5.00266e-13 0)
(0 0 0)
(0 2.59989e-13 0)
(0 1.28827e-13 0)
(-4.85716e-13 -1.21429e-13 0)
(0 -2.56231e-13 0)
(0 5.12462e-13 0)
(1.28115e-13 5.12462e-13 0)
(0 0 0)
(-5.12462e-13 0 0)
(5.12461e-13 0 0)
(0 2.56223e-13 0)
(0 0 0)
(-1.24801e-13 4.99205e-13 0)
(-2.54012e-13 -2.54012e-13 0)
(0 1.25866e-13 0)
(0 0 0)
(0 -2.7027e-13 0)
(0 -1.09296e-12 0)
(-1.3662e-13 0 0)
(0 2.7324e-13 0)
(0 1.3662e-13 0)
(0 0 0)
(-2.66599e-13 2.66599e-13 0)
(0 5.23592e-13 0)
(1.34262e-13 5.37048e-13 0)
(-2.73239e-13 0 0)
(0 0 0)
(0 -1.33328e-13 0)
(0 0 0)
(1.33328e-13 0 0)
(1.33328e-13 0 0)
(0 -2.66655e-13 0)
(0 -1.33328e-13 0)
(0 -1.25243e-13 0)
(0 -2.60175e-13 0)
(0 0 0)
(-1.31027e-13 0 0)
(2.66655e-13 0 0)
(-5.33311e-13 1.33328e-13 0)
(0 0 0)
(5.15103e-13 0 0)
(0 0 0)
(-1.30191e-13 0 0)
(-2.60381e-13 -2.60381e-13 0)
(0 0 0)
(0 1.22297e-13 0)
(0 2.54053e-13 0)
(0 4.98952e-13 0)
(0 1.02355e-12 0)
(0 0 0)
(0 0 0)
(0 -1.27198e-13 0)
(-2.51631e-13 -2.51631e-13 0)
(0 0 0)
(1.27198e-13 -5.08791e-13 0)
(0 0 0)
(0 1.27198e-13 0)
(4.77941e-13 0 0)
(0 2.48213e-13 0)
(0 -4.87482e-13 0)
(-1.25002e-13 -5.0001e-13 0)
(2.54395e-13 0 0)
(0 1.27198e-13 0)
(-1.08659e-12 0 0)
(0 0 0)
(0 0 0)
(-1.35823e-13 5.43293e-13 0)
(-2.71646e-13 0 0)
(-5.43293e-13 -1.35823e-13 0)
(-5.43293e-13 0 0)
(-2.64179e-13 -2.64179e-13 0)
(-1.35823e-13 -5.43293e-13 0)
(0 0 0)
(-2.71646e-13 0 0)
(-1.08659e-12 0 0)
(0 1.3255e-13 0)
(-2.58904e-13 2.58904e-13 0)
(-1.27567e-13 0 0)
(1.3255e-13 0 0)
(2.65101e-13 0 0)
(-5.30201e-13 0 0)
(0 1.3255e-13 0)
(2.57814e-13 0 0)
(-1.3255e-13 5.30201e-13 0)
(-1.3255e-13 0 0)
(2.65101e-13 2.65101e-13 0)
(0 -1.3255e-13 0)
(0 0 0)
(2.52812e-13 0 0)
(0 0 0)
(-1.29431e-13 0 0)
(0 2.58863e-13 0)
(0 1.29431e-13 0)
(0 -1.29431e-13 0)
(0 2.51747e-13 0)
(0 0 0)
(0 0 0)
(-2.58863e-13 0 0)
(0 0 0)
(0 -1.26456e-13 0)
(-2.47e-13 2.47e-13 0)
(0 -4.86807e-13 0)
(0 -5.05824e-13 0)
(0 0 0)
(-5.05824e-13 0 0)
(0 0 0)
(2.4596e-13 4.9192e-13 0)
(1.26456e-13 0 0)
(0 0 0)
(0 0 0)
(0 1.26456e-13 0)
(0 0 0)
(2.54515e-13 -2.54515e-13 0)
(0 5.45479e-13 0)
(1.3637e-13 0 0)
(2.60803e-13 2.60803e-13 0)
(0 -1.3637e-13 0)
(0 0 0)
(0 -2.72739e-13 0)
(1.33449e-13 5.33798e-13 0)
(1.3637e-13 0 0)
(2.72739e-13 0 0)
(5.45479e-13 0 0)
(5.32335e-13 1.33084e-13 0)
(0 4.96765e-13 0)
(0 -5.32335e-13 0)
(0 -5.32335e-13 0)
(0 -2.54518e-13 0)
(-5.32335e-13 0 0)
(5.32335e-13 0 0)
(2.66167e-13 -2.66167e-13 0)
(0 0 0)
(0 0 0)
(-5.32335e-13 0 0)
(0 -1.33084e-13 0)
(0 -1.29952e-13 0)
(-4.85076e-13 -4.85076e-13 0)
(-1.29952e-13 5.19809e-13 0)
(0 0 0)
(0 2.48529e-13 0)
(0 0 0)
(-1.03962e-12 1.29952e-13 0)
(-2.59904e-13 2.59904e-13 0)
(-1.27169e-13 0 0)
(0 0 0)
(2.59905e-13 0 0)
(0 1.29952e-13 0)
(-5.07859e-13 1.26965e-13 0)
(-4.73925e-13 0 0)
(0 0 0)
(0 -5.07859e-13 0)
(4.85632e-13 -2.42816e-13 0)
(5.07859e-13 0 0)
(0 0 0)
(2.5393e-13 -5.07859e-13 0)
(1.24246e-13 0 0)
(0 -1.01572e-12 0)
(2.5393e-13 0 0)
(0 -1.26965e-13 0)
(0 0 0)
(-2.75366e-13 2.75366e-13 0)
(1.37683e-13 -5.50732e-13 0)
(0 0 0)
(2.53672e-13 2.53672e-13 0)
(5.50732e-13 1.37683e-13 0)
(-5.50732e-13 2.75366e-13 0)
(0 0 0)
(-1.29591e-13 -5.18364e-13 0)
(0 0 0)
(0 0 0)
(5.44082e-13 -2.72041e-13 0)
(5.07293e-13 1.26823e-13 0)
(2.68731e-13 0 0)
(0 0 0)
(-1.34365e-13 5.37461e-13 0)
(-4.95119e-13 0 0)
(-5.37461e-13 0 0)
(5.37461e-13 0 0)
(0 0 0)
(1.26468e-13 0 0)
(0 0 0)
(0 -2.66075e-13 0)
(0 1.32743e-13 0)
(-4.95356e-13 -1.23839e-13 0)
(-5.24815e-13 0 0)
(0 -5.24815e-13 0)
(0 0 0)
(0 0 0)
(0 1.31204e-13 0)
(0 -1.31204e-13 0)
(2.62408e-13 0 0)
(0 0 0)
(0 -5.11582e-13 0)
(0 0 0)
(5.18479e-13 1.2962e-13 0)
(4.83969e-13 0 0)
(2.56375e-13 0 0)
(0 0 0)
(-1.28188e-13 -5.12751e-13 0)
(0 4.72355e-13 0)
(5.12751e-13 -1.28188e-13 0)
(0 1.28188e-13 0)
(-2.56375e-13 2.56375e-13 0)
(-1.20654e-13 -4.82615e-13 0)
(1.24955e-13 0 0)
(5.07684e-13 0 0)
(-5.0656e-13 -1.2664e-13 0)
(-5.4488e-13 0 0)
(0 -2.7244e-13 0)
(0 0 0)
(-1.35299e-13 5.41194e-13 0)
(-2.67247e-13 0 0)
(5.16804e-13 1.29201e-13 0)
(0 1.34455e-13 0)
(0 0 0)
(-1.3622e-13 0 0)
(1.3622e-13 -5.4488e-13 0)
(-2.63809e-13 2.63809e-13 0)
(-5.4488e-13 0 0)
(0 -1.32938e-13 0)
(0 2.65875e-13 0)
(-1.32938e-13 -5.31751e-13 0)
(0 -5.28153e-13 0)
(2.60807e-13 0 0)
(0 0 0)
(-5.2486e-13 0 0)
(0 0 0)
(0 0 0)
(-1.32938e-13 0 0)
(-2.57452e-13 0 0)
(0 1.32938e-13 0)
(0 -1.2981e-13 0)
(0 0 0)
(0 0 0)
(0 5.15726e-13 0)
(-2.5467e-13 2.5467e-13 0)
(0 0 0)
(5.1251e-13 0 0)
(0 0 0)
(1.2981e-13 0 0)
(-1.2981e-13 0 0)
(0 0 0)
(0 1.2981e-13 0)
(5.07302e-13 -1.26826e-13 0)
(0 0 0)
(0 0 0)
(0 -5.0387e-13 0)
(0 0 0)
(0 2.40581e-13 0)
(0 1.25182e-13 0)
(2.53651e-13 0 0)
(0 1.01461e-12 0)
(0 0 0)
(0 0 0)
(0 1.26826e-13 0)
(0 1.36663e-13 0)
(0 2.68607e-13 0)
(1.22926e-13 0 0)
(0 5.46652e-13 0)
(0 0 0)
(-5.46652e-13 -1.36663e-13 0)
(0 1.36663e-13 0)
(0 2.64074e-13 0)
(1.36663e-13 5.46652e-13 0)
(-1.36663e-13 0 0)
(5.46652e-13 0 0)
(5.46652e-13 -1.36663e-13 0)
(0 -1.3337e-13 0)
(0 -2.62134e-13 0)
(0 0 0)
(0 0 0)
(0 2.6674e-13 0)
(0 0 0)
(5.33479e-13 -1.3337e-13 0)
(-2.57711e-13 -5.15421e-13 0)
(-1.3337e-13 -5.33479e-13 0)
(-1.3337e-13 0 0)
(0 0 0)
(-5.33479e-13 1.3337e-13 0)
(0 0 0)
(-2.55967e-13 -2.55967e-13 0)
(-1.17141e-13 0 0)
(1.30232e-13 0 0)
(2.60464e-13 0 0)
(-5.20927e-13 0 0)
(0 1.30232e-13 0)
(0 -5.03294e-13 0)
(0 -5.20927e-13 0)
(2.60463e-13 5.20927e-13 0)
(0 0 0)
(5.20927e-13 0 0)
(0 0 0)
(2.50082e-13 0 0)
(-1.14449e-13 -4.57794e-13 0)
(0 -5.08952e-13 0)
(-2.54476e-13 0 0)
(0 0 0)
(5.08952e-13 -1.27238e-13 0)
(0 4.91724e-13 0)
(-1.27238e-13 -5.08952e-13 0)
(-1.27238e-13 -5.08952e-13 0)
(0 -2.54476e-13 0)
(0 0 0)
(0 1.3677e-13 0)
(-5.37626e-13 -2.68813e-13 0)
(0 5.47081e-13 0)
(1.3677e-13 5.47081e-13 0)
(0 0 0)
(0 -2.73541e-13 0)
(0 2.56996e-13 0)
(-2.65118e-13 2.65118e-13 0)
(0 0 0)
(0 0 0)
(-2.73541e-13 0 0)
(0 -1.3677e-13 0)
(0 -1.33475e-13 0)
(2.62336e-13 0 0)
(0 -5.33899e-13 0)
(0 0 0)
(0 0 0)
(0 1.33475e-13 0)
(0 -1.25402e-13 0)
(-2.5873e-13 0 0)
(0 5.23544e-13 0)
(0 -5.12574e-13 0)
(2.66949e-13 0 0)
(0 1.33475e-13 0)
(5.21336e-13 0 0)
(0 2.56163e-13 0)
(0 -5.21336e-13 0)
(1.30334e-13 -5.21336e-13 0)
(2.60668e-13 -2.60668e-13 0)
(0 -1.30334e-13 0)
(4.89805e-13 1.22451e-13 0)
(5.05284e-13 -2.52642e-13 0)
(0 0 0)
(0 0 0)
(2.60668e-13 0 0)
(0 0 0)
(0 -1.27338e-13 0)
(2.50274e-13 -2.50274e-13 0)
(0 -5.09352e-13 0)
(0 5.09352e-13 0)
(2.54676e-13 5.09352e-13 0)
(0 0 0)
(4.78545e-13 0 0)
(-4.93668e-13 0 0)
(-1.24868e-13 0 0)
(-1.22252e-13 0 0)
(0 2.54676e-13 0)
(5.09352e-13 1.27338e-13 0)
(5.33579e-13 0 0)
(0 -2.72624e-13 0)
(0 -5.44055e-13 0)
(0 0 0)
(-2.72624e-13 0 0)
(0 -2.72624e-13 0)
(-5.45249e-13 0 0)
(0 0 0)
(0 5.45249e-13 0)
(0 5.45249e-13 0)
(0 -2.72624e-13 0)
(0 -1.35128e-13 0)
(0 0 0)
(2.66055e-13 0 0)
(0 0 0)
(0 0 0)
(0 0 0)
(0 1.33028e-13 0)
(5.3211e-13 0 0)
(2.51463e-13 2.51463e-13 0)
(1.33028e-13 0 0)
(0 -5.3211e-13 0)
(2.66055e-13 -2.66055e-13 0)
(0 0 0)
(-5.0847e-13 0 0)
(-2.59795e-13 0 0)
(0 0 0)
(0 4.97891e-13 0)
(2.59795e-13 -2.59795e-13 0)
(5.1959e-13 0 0)
(5.1959e-13 1.29897e-13 0)
(-4.91093e-13 0 0)
(-1.29897e-13 0 0)
(-1.29897e-13 0 0)
(0 2.59795e-13 0)
(5.15074e-13 1.28769e-13 0)
(0 0 0)
(2.53823e-13 2.53823e-13 0)
(0 -5.06534e-13 0)
(0 0 0)
(-5.07645e-13 0 0)
(0 -1.26911e-13 0)
(0 0 0)
(0 0 0)
(2.53823e-13 0 0)
(-1.26911e-13 0 0)
(0 -5.07645e-13 0)
(0 -1.25808e-13 0)
(-5.44681e-13 0 0)
(-2.64272e-13 0 0)
(0 -5.44681e-13 0)
(0 -5.44681e-13 0)
(0 0 0)
(0 -1.3617e-13 0)
(0 1.27343e-13 0)
(-2.6652e-13 -2.6652e-13 0)
(0 0 0)
(0 -5.44681e-13 0)
(-2.72341e-13 0 0)
(5.44681e-13 0 0)
(0 0 0)
(-2.57904e-13 -2.57904e-13 0)
(0 0 0)
(0 0 0)
(0 -2.65778e-13 0)
(0 -1.32889e-13 0)
(0 1.24274e-13 0)
(2.60098e-13 0 0)
(1.32889e-13 5.31557e-13 0)
(0 0 0)
(0 0 0)
(-5.31557e-13 0 0)