/*--------------------------------*- C++ -*----------------------------------*\
| =========                 |                                                 |
| \\      /  F ield         | OpenFOAM: The Open Source CFD Toolbox           |
|  \\    /   O peration     | Version:  2312                                  |
|   \\  /    A nd           | Website:  www.openfoam.com                      |
|    \\/     M anipulation  |                                                 |
\*---------------------------------------------------------------------------*/
FoamFile
{
    version     2.0;
    format      ascii;
    arch        "LSB;label=32;scalar=64";
    class       volScalarField;
    location    "0.00012";
    object      p;
}
// * * * * * * * * * * * * * * * * * * * * * * * * * * * * * * * * * * * * * //

dimensions      [1 -1 -2 0 0 0 0];

internalField   nonuniform List<scalar> 
500
(
297681
297756
297802
297833
297857
297876
297892
297906
297919
297930
297941
297950
297959
297968
297976
297984
297991
297999
298006
298013
298020
298026
298033
298040
298046
298053
298059
298066
298072
298079
298085
298092
298098
298105
298112
298118
298125
298132
298139
298146
298154
298161
298169
298176
298184
298192
298200
298208
298216
298225
298233
298242
298251
298260
298270
298280
298289
298299
298310
298320
298331
298342
298353
298365
298377
298389
298401
298414
298427
298440
298454
298468
298483
298497
298513
298528
298544
298561
298578
298595
298613
298631
298650
298670
298690
298710
298732
298754
298776
298799
298823
298847
298873
298899
298925
298953
298982
299011
299041
299072
299105
299138
299172
299208
299244
299282
299321
299361
299403
299445
299490
299536
299583
299632
299683
299735
299789
299845
299903
299963
300025
300089
300156
300225
300296
300370
300447
300526
300608
300693
300782
300873
300968
301067
301169
301275
301385
301499
301617
301740
301867
302000
302137
302280
302428
302582
302742
302908
303081
303260
303446
303640
303842
304051
304269
304495
304730
304975
305230
305495
305771
306057
306356
306666
306989
307325
307675
308039
308419
308813
309224
309652
310097
310561
311044
311547
312071
312616
313184
313776
314392
315034
315703
316400
317125
317881
318669
319489
320344
321235
322163
323131
324138
325188
326283
327423
328611
329850
331141
332486
333888
335349
336873
338460
340115
341840
343639
345513
347468
349506
351630
353845
356155
358563
361074
363693
366424
369272
372243
375341
378573
381945
385461
389130
392958
396951
401118
405465
410002
414736
419676
424832
430213
435830
441691
447810
454196
460862
467821
475084
482666
490579
498840
507462
516461
525852
535652
545876
556542
567664
579242
591301
603860
616928
630512
644609
659198
674238
689645
705268
720844
735930
749778
761154
768029
767152
753489
719754
656787
556697
422599
280188
171467
118810
103634
100620
100101
100015
100000
99998
99997.7
99997.6
99997.6
99997.6
99997.6
99997.6
99997.6
99997.6
99997.6
99997.6
99997.6
99997.6
99997.6
99997.6
99997.6
99997.6
99997.6
99997.6
99997.6
99997.6
99997.6
99997.6
99997.6
99997.6
99997.6
99997.6
99997.6
99997.6
99997.6
99997.6
99997.6
99997.6
99997.6
99997.6
99997.6
99997.6
99997.6
99997.6
99997.6
99997.6
99997.6
99997.6
99997.6
99997.6
99997.6
99997.6
99997.6
99997.6
99997.6
99997.6
99997.6
99997.6
99997.6
99997.6
99997.6
99997.6
99997.6
99997.6
99997.6
99997.6
99997.6
99997.6
99997.6
99997.6
99997.6
99997.6
99997.6
99997.6
99997.6
99997.6
99997.6
99997.6
99997.6
99997.6
99997.6
99997.6
99997.6
99997.6
99997.6
99997.6
99997.6
99997.6
99997.6
99997.6
99997.6
99997.6
99997.6
99997.6
99997.6
99997.6
99997.6
99997.6
99997.6
99997.6
99997.6
99997.6
99997.6
99997.6
99997.6
99997.6
99997.6
99997.6
99997.6
99997.6
99997.6
99997.6
99997.6
99997.6
99997.6
99997.6
99997.6
99997.6
99997.6
99997.6
99997.6
99997.6
99997.6
99997.6
99997.6
99997.6
99997.6
99997.6
99997.6
99997.6
99997.6
99997.6
99997.6
99997.6
99997.6
99997.6
99997.6
99997.6
99997.6
99997.6
99997.6
99997.6
99997.6
99997.6
99997.6
99997.6
99997.6
99997.6
99997.6
99997.6
99997.6
99997.6
99997.6
99997.6
99997.6
99997.6
99997.6
99997.6
99997.6
99997.6
99997.6
99997.6
99997.6
99997.6
99997.6
99997.6
99997.6
99997.6
99997.6
99997.6
99997.6
99997.6
99997.6
99997.6
99997.6
99997.6
99997.6
99997.6
99997.6
99997.6
99997.6
99997.6
99997.6
99997.6
99997.6
99997.6
99997.6
99997.6
99997.6
99997.6
99997.6
99997.6
99997.6
99997.6
99997.6
99997.6
99997.6
99997.6
99997.6
99997.6
99997.6
99997.6
99997.6
99997.6
99997.6
99997.6
99997.6
99997.6
99997.6
99997.6
99997.6
99997.6
99997.6
99997.6
99997.6
99997.6
99997.6
99997.6
99997.6
99997.6
99997.6
99997.6
99997.6
99997.6
99997.6
99997.6
)
;

boundaryField
{
    wedge0
    {
        type            wedge;
    }
    wedge1
    {
        type            wedge;
    }
    wedge2
    {
        type            wedge;
    }
    wedge3
    {
        type            wedge;
    }
    outlet
    {
        type            zeroGradient;
    }
    defaultFaces
    {
        type            empty;
    }
}


// ************************************************************************* //
