/*--------------------------------*- C++ -*----------------------------------*\
| =========                 |                                                 |
| \\      /  F ield         | OpenFOAM: The Open Source CFD Toolbox           |
|  \\    /   O peration     | Version:  2312                                  |
|   \\  /    A nd           | Website:  www.openfoam.com                      |
|    \\/     M anipulation  |                                                 |
\*---------------------------------------------------------------------------*/
FoamFile
{
    version     2.0;
    format      ascii;
    arch        "LSB;label=32;scalar=64";
    class       volScalarField;
    location    "0.00012";
    object      rho;
}
// * * * * * * * * * * * * * * * * * * * * * * * * * * * * * * * * * * * * * //

dimensions      [1 -3 0 0 0 0 0];

internalField   nonuniform List<scalar> 
500
(
0.00505282
0.00505502
0.00505815
0.0050624
0.00506784
0.00507453
0.00508249
0.00509172
0.00510225
0.00511408
0.00512724
0.00514172
0.00515754
0.00517472
0.00519326
0.00521319
0.00523451
0.00525725
0.00528142
0.00530703
0.00533411
0.00536268
0.00539276
0.00542438
0.00545754
0.00549229
0.00552864
0.00556663
0.00560628
0.00564763
0.0056907
0.00573553
0.00578215
0.0058306
0.00588092
0.00593315
0.00598732
0.00604348
0.00610168
0.00616196
0.00622437
0.00628895
0.00635577
0.00642488
0.00649633
0.00657018
0.0066465
0.00672534
0.00680678
0.00689087
0.0069777
0.00706733
0.00715985
0.00725534
0.00735386
0.00745552
0.0075604
0.0076686
0.00778021
0.00789532
0.00801405
0.00813651
0.00826279
0.00839303
0.00852734
0.00866584
0.00880867
0.00895596
0.00910785
0.00926448
0.00942602
0.0095926
0.0097644
0.00994159
0.0101243
0.0103128
0.0105072
0.0107078
0.0109147
0.0111281
0.0113483
0.0115755
0.0118099
0.0120518
0.0123014
0.012559
0.0128249
0.0130993
0.0133827
0.0136751
0.0139771
0.0142889
0.0146109
0.0149434
0.0152868
0.0156416
0.016008
0.0163866
0.0167777
0.0171818
0.0175995
0.0180311
0.0184773
0.0189384
0.0194152
0.0199081
0.0204178
0.0209448
0.0214899
0.0220536
0.0226367
0.02324
0.0238641
0.0245098
0.025178
0.0258695
0.0265852
0.027326
0.0280928
0.0288866
0.0297085
0.0305595
0.0314407
0.0323532
0.0332983
0.0342772
0.0352912
0.0363416
0.0374297
0.0385571
0.0397253
0.0409357
0.0421899
0.0434898
0.0448369
0.0462331
0.0476802
0.0491802
0.0507351
0.052347
0.054018
0.0557503
0.0575463
0.0594084
0.061339
0.0633408
0.0654164
0.0675685
0.0698001
0.072114
0.0745134
0.0770014
0.0795812
0.0822564
0.0850304
0.0879068
0.0908894
0.0939821
0.0971888
0.100514
0.103961
0.107535
0.111241
0.115083
0.119066
0.123195
0.127476
0.131913
0.136512
0.141279
0.146219
0.15134
0.156646
0.162145
0.167843
0.173747
0.179864
0.186202
0.192767
0.199568
0.206613
0.213909
0.221466
0.229292
0.237397
0.245789
0.254478
0.263474
0.272788
0.28243
0.292411
0.302742
0.313435
0.324502
0.335955
0.347808
0.360073
0.372764
0.385895
0.399482
0.413539
0.428082
0.443127
0.458691
0.474792
0.491447
0.508676
0.526498
0.544932
0.564
0.583723
0.604124
0.625227
0.647054
0.669632
0.692987
0.717145
0.742135
0.767987
0.794729
0.822395
0.851016
0.880627
0.911263
0.942961
0.975759
1.0097
1.04481
1.08116
1.11876
1.15769
1.19797
1.23966
1.28281
1.32747
1.3737
1.42156
1.47109
1.52236
1.57543
1.63036
1.68722
1.74606
1.80696
1.86998
1.93519
2.00266
2.07245
2.14463
2.21924
2.29611
2.37533
2.45708
2.54144
2.62845
2.7181
2.81033
2.90498
3.00177
3.10016
3.19925
3.29747
3.39225
3.47925
3.55136
3.5971
3.59842
3.52871
3.35296
3.03603
2.57067
2.02736
1.55621
1.28403
1.18814
1.16596
1.16184
1.16114
1.16102
1.161
1.161
1.161
1.161
1.161
1.161
1.161
1.161
1.161
1.161
1.161
1.161
1.161
1.161
1.161
1.161
1.161
1.161
1.161
1.161
1.161
1.161
1.161
1.161
1.161
1.161
1.161
1.161
1.161
1.161
1.161
1.161
1.161
1.161
1.161
1.161
1.161
1.161
1.161
1.161
1.161
1.161
1.161
1.161
1.161
1.161
1.161
1.161
1.161
1.161
1.161
1.161
1.161
1.161
1.161
1.161
1.161
1.161
1.161
1.161
1.161
1.161
1.161
1.161
1.161
1.161
1.161
1.161
1.161
1.161
1.161
1.161
1.161
1.161
1.161
1.161
1.161
1.161
1.161
1.161
1.161
1.161
1.161
1.161
1.161
1.161
1.161
1.161
1.161
1.161
1.161
1.161
1.161
1.161
1.161
1.161
1.161
1.161
1.161
1.161
1.161
1.161
1.161
1.161
1.161
1.161
1.161
1.161
1.161
1.161
1.161
1.161
1.161
1.161
1.161
1.161
1.161
1.161
1.161
1.161
1.161
1.161
1.161
1.161
1.161
1.161
1.161
1.161
1.161
1.161
1.161
1.161
1.161
1.161
1.161
1.161
1.161
1.161
1.161
1.161
1.161
1.161
1.161
1.161
1.161
1.161
1.161
1.161
1.161
1.161
1.161
1.161
1.161
1.161
1.161
1.161
1.161
1.161
1.161
1.161
1.161
1.161
1.161
1.161
1.161
1.161
1.161
1.161
1.161
1.161
1.161
1.161
1.161
1.161
1.161
1.161
1.161
1.161
1.161
1.161
1.161
1.161
1.161
1.161
1.161
1.161
1.161
1.161
1.161
1.161
1.161
1.161
1.161
1.161
1.161
1.161
1.161
1.161
1.161
1.161
1.161
1.161
1.161
1.161
1.161
1.161
1.161
1.161
1.161
1.161
1.161
1.161
1.161
1.161
1.161
1.161
1.161
1.161
1.161
1.161
1.161
)
;

boundaryField
{
    wedge0
    {
        type            wedge;
    }
    wedge1
    {
        type            wedge;
    }
    wedge2
    {
        type            wedge;
    }
    wedge3
    {
        type            wedge;
    }
    outlet
    {
        type            zeroGradient;
    }
    defaultFaces
    {
        type            empty;
    }
}


// ************************************************************************* //
