/*--------------------------------*- C++ -*----------------------------------*\
| =========                 |                                                 |
| \\      /  F ield         | OpenFOAM: The Open Source CFD Toolbox           |
|  \\    /   O peration     | Version:  2312                                  |
|   \\  /    A nd           | Website:  www.openfoam.com                      |
|    \\/     M anipulation  |                                                 |
\*---------------------------------------------------------------------------*/
FoamFile
{
    version     2.0;
    format      ascii;
    arch        "LSB;label=32;scalar=64";
    class       volScalarField;
    location    "0.00012";
    object      T;
}
// * * * * * * * * * * * * * * * * * * * * * * * * * * * * * * * * * * * * * //

dimensions      [0 0 0 1 0 0 0];

internalField   nonuniform List<scalar> 
500
(
205202
205164
205069
204918
204714
204458
204149
203788
203376
202913
202400
201836
201223
200561
199850
199092
198286
197433
196534
195590
194602
193569
192494
191376
190217
189018
187779
186502
185187
183835
182448
181026
179570
178082
176562
175012
173432
171825
170190
168529
166843
165134
163402
161649
159875
158082
156271
154443
152600
150742
148870
146987
145092
143187
141273
139351
137422
135488
133549
131606
129661
127715
125767
123821
121875
119932
117992
116057
114126
112202
110284
108374
106472
104580
102698
100826
98965.5
97117.3
95281.9
93460
91652.1
89858.9
88080.9
86318.7
84572.8
82843.7
81131.9
79437.9
77762
76104.7
74466.4
72847.4
71248.1
69668.8
68109.8
66571.3
65053.6
63557
62081.6
60627.6
59195.2
57784.6
56395.9
55029.1
53684.3
52361.8
51061.4
49783.2
48527.3
47293.6
46082.1
44892.8
43725.7
42580.6
41457.6
40356.4
39277.1
38219.5
37183.5
36168.9
35175.6
34203.4
33252.1
32321.6
31411.7
30522.1
29652.8
28803.3
27973.6
27163.3
26372.3
25600.4
24847.1
24112.4
23395.8
22697.3
22016.4
21353
20706.7
20077.3
19464.4
18867.9
18287.3
17722.5
17173.1
16638.8
16119.4
15614.6
15124
14647.4
14184.4
13734.9
13298.4
12874.8
12463.7
12064.8
11677.9
11302.7
10938.9
10586.3
10244.5
9913.23
9592.33
9281.49
8980.46
8688.97
8406.77
8133.62
7869.28
7613.49
7366.02
7126.65
6895.13
6671.26
6454.8
6245.54
6043.28
5847.8
5658.89
5476.37
5300.04
5129.71
4965.18
4806.3
4652.86
4504.71
4361.68
4223.59
4090.3
3961.65
3837.48
3717.66
3602.02
3490.45
3382.8
3278.94
3178.75
3082.1
2988.87
2898.94
2812.21
2728.57
2647.9
2570.11
2495.09
2422.76
2353.01
2285.77
2220.94
2158.44
2098.18
2040.1
1984.11
1930.14
1878.12
1827.99
1779.68
1733.12
1688.25
1645.02
1603.37
1563.24
1524.59
1487.36
1451.5
1416.96
1383.71
1351.69
1320.88
1291.21
1262.66
1235.2
1208.78
1183.36
1158.93
1135.44
1112.87
1091.18
1070.35
1050.35
1031.16
1012.75
995.097
978.179
961.974
946.461
931.621
917.433
903.878
890.944
878.682
867.06
856.015
845.511
835.523
826.028
817.002
808.414
800.225
792.38
784.798
777.355
769.856
761.993
753.263
742.837
729.338
710.449
682.276
638.67
572.592
481.375
383.777
322.288
303.81
300.583
300.092
300.015
300.002
300
300
300
300
300
300
300
300
300
300
300
300
300
300
300
300
300
300
300
300
300
300
300
300
300
300
300
300
300
300
300
300
300
300
300
300
300
300
300
300
300
300
300
300
300
300
300
300
300
300
300
300
300
300
300
300
300
300
300
300
300
300
300
300
300
300
300
300
300
300
300
300
300
300
300
300
300
300
300
300
300
300
300
300
300
300
300
300
300
300
300
300
300
300
300
300
300
300
300
300
300
300
300
300
300
300
300
300
300
300
300
300
300
300
300
300
300
300
300
300
300
300
300
300
300
300
300
300
300
300
300
300
300
300
300
300
300
300
300
300
300
300
300
300
300
300
300
300
300
300
300
300
300
300
300
300
300
300
300
300
300
300
300
300
300
300
300
300
300
300
300
300
300
300
300
300
300
300
300
300
300
300
300
300
300
300
300
300
300
300
300
300
300
300
300
300
300
300
300
300
300
300
300
300
300
300
300
300
300
300
300
300
300
300
300
300
300
300
300
300
300
)
;

boundaryField
{
    wedge0
    {
        type            wedge;
    }
    wedge1
    {
        type            wedge;
    }
    wedge2
    {
        type            wedge;
    }
    wedge3
    {
        type            wedge;
    }
    outlet
    {
        type            zeroGradient;
    }
    defaultFaces
    {
        type            empty;
    }
}


// ************************************************************************* //
