/*--------------------------------*- C++ -*----------------------------------*\
| =========                 |                                                 |
| \\      /  F ield         | OpenFOAM: The Open Source CFD Toolbox           |
|  \\    /   O peration     | Version:  2312                                  |
|   \\  /    A nd           | Website:  www.openfoam.com                      |
|    \\/     M anipulation  |                                                 |
\*---------------------------------------------------------------------------*/
FoamFile
{
    version     2.0;
    format      ascii;
    arch        "LSB;label=32;scalar=64";
    class       volScalarField;
    location    "0.00012";
    object      thermo:e;
}
// * * * * * * * * * * * * * * * * * * * * * * * * * * * * * * * * * * * * * //

dimensions      [0 2 -2 0 0 0 0];

internalField   nonuniform List<scalar> 
500
(
1.47273e+08
1.47246e+08
1.47178e+08
1.4707e+08
1.46924e+08
1.46739e+08
1.46518e+08
1.46259e+08
1.45963e+08
1.45631e+08
1.45262e+08
1.44858e+08
1.44418e+08
1.43943e+08
1.43433e+08
1.42888e+08
1.4231e+08
1.41698e+08
1.41053e+08
1.40375e+08
1.39666e+08
1.38925e+08
1.38153e+08
1.37351e+08
1.36519e+08
1.35658e+08
1.34769e+08
1.33852e+08
1.32909e+08
1.31938e+08
1.30943e+08
1.29922e+08
1.28877e+08
1.27809e+08
1.26719e+08
1.25606e+08
1.24472e+08
1.23319e+08
1.22145e+08
1.20953e+08
1.19744e+08
1.18517e+08
1.17274e+08
1.16015e+08
1.14742e+08
1.13455e+08
1.12156e+08
1.10844e+08
1.09521e+08
1.08187e+08
1.06844e+08
1.05492e+08
1.04132e+08
1.02765e+08
1.01391e+08
1.00012e+08
9.86279e+07
9.72396e+07
9.5848e+07
9.44538e+07
9.30578e+07
9.16607e+07
9.02632e+07
8.8866e+07
8.74698e+07
8.60753e+07
8.46831e+07
8.3294e+07
8.19085e+07
8.05273e+07
7.91509e+07
7.77801e+07
7.64153e+07
7.50571e+07
7.3706e+07
7.23627e+07
7.10275e+07
6.97011e+07
6.83839e+07
6.70762e+07
6.57787e+07
6.44917e+07
6.32157e+07
6.19509e+07
6.06979e+07
5.94569e+07
5.82284e+07
5.70126e+07
5.58098e+07
5.46204e+07
5.34445e+07
5.22826e+07
5.11348e+07
5.00013e+07
4.88824e+07
4.77782e+07
4.6689e+07
4.56148e+07
4.45559e+07
4.35124e+07
4.24844e+07
4.1472e+07
4.04753e+07
3.94944e+07
3.85293e+07
3.758e+07
3.66467e+07
3.57294e+07
3.4828e+07
3.39426e+07
3.30731e+07
3.22196e+07
3.13819e+07
3.05601e+07
2.97541e+07
2.89638e+07
2.81892e+07
2.74301e+07
2.66866e+07
2.59584e+07
2.52455e+07
2.45477e+07
2.3865e+07
2.31972e+07
2.25442e+07
2.19057e+07
2.12818e+07
2.06721e+07
2.00766e+07
1.94951e+07
1.89274e+07
1.83734e+07
1.78328e+07
1.73054e+07
1.67912e+07
1.62898e+07
1.58012e+07
1.5325e+07
1.48612e+07
1.44095e+07
1.39696e+07
1.35415e+07
1.31248e+07
1.27194e+07
1.23251e+07
1.19417e+07
1.15689e+07
1.12066e+07
1.08545e+07
1.05124e+07
1.01802e+07
9.85752e+06
9.54428e+06
9.24024e+06
8.9452e+06
8.65894e+06
8.38126e+06
8.11198e+06
7.85088e+06
7.59776e+06
7.35244e+06
7.11472e+06
6.88442e+06
6.66133e+06
6.44527e+06
6.23607e+06
6.03354e+06
5.8375e+06
5.64778e+06
5.4642e+06
5.28659e+06
5.11479e+06
4.94864e+06
4.78796e+06
4.63261e+06
4.48243e+06
4.33726e+06
4.19696e+06
4.06139e+06
3.93039e+06
3.80384e+06
3.68159e+06
3.56351e+06
3.44948e+06
3.33936e+06
3.23303e+06
3.13037e+06
3.03127e+06
2.93561e+06
2.84328e+06
2.75416e+06
2.66816e+06
2.58517e+06
2.5051e+06
2.42784e+06
2.3533e+06
2.28139e+06
2.21202e+06
2.14511e+06
2.08057e+06
2.01833e+06
1.95829e+06
1.9004e+06
1.84457e+06
1.79073e+06
1.73881e+06
1.68876e+06
1.6405e+06
1.59397e+06
1.54911e+06
1.50587e+06
1.46418e+06
1.42399e+06
1.38526e+06
1.34793e+06
1.31195e+06
1.27727e+06
1.24386e+06
1.21166e+06
1.18063e+06
1.15074e+06
1.12194e+06
1.0942e+06
1.06748e+06
1.04174e+06
1.01695e+06
993089
970111
947992
926702
906214
886502
867538
849300
831763
814905
798704
783139
768190
753838
740064
726851
714181
702039
690409
679275
668624
658441
648713
639431
630630
622289
614362
606823
599655
592840
586362
580199
574321
568691
563249
557907
552526
546883
540617
533134
523446
509889
489669
458374
410950
345483
275436
231306
218044
215729
215376
215321
215312
215310
215310
215310
215310
215310
215310
215310
215310
215310
215310
215310
215310
215310
215310
215310
215310
215310
215310
215310
215310
215310
215310
215310
215310
215310
215310
215310
215310
215310
215310
215310
215310
215310
215310
215310
215310
215310
215310
215310
215310
215310
215310
215310
215310
215310
215310
215310
215310
215310
215310
215310
215310
215310
215310
215310
215310
215310
215310
215310
215310
215310
215310
215310
215310
215310
215310
215310
215310
215310
215310
215310
215310
215310
215310
215310
215310
215310
215310
215310
215310
215310
215310
215310
215310
215310
215310
215310
215310
215310
215310
215310
215310
215310
215310
215310
215310
215310
215310
215310
215310
215310
215310
215310
215310
215310
215310
215310
215310
215310
215310
215310
215310
215310
215310
215310
215310
215310
215310
215310
215310
215310
215310
215310
215310
215310
215310
215310
215310
215310
215310
215310
215310
215310
215310
215310
215310
215310
215310
215310
215310
215310
215310
215310
215310
215310
215310
215310
215310
215310
215310
215310
215310
215310
215310
215310
215310
215310
215310
215310
215310
215310
215310
215310
215310
215310
215310
215310
215310
215310
215310
215310
215310
215310
215310
215310
215310
215310
215310
215310
215310
215310
215310
215310
215310
215310
215310
215310
215310
215310
215310
215310
215310
215310
215310
215310
215310
215310
215310
215310
215310
215310
215310
215310
215310
215310
215310
215310
215310
215310
215310
215310
215310
215310
215310
215310
215310
215310
215310
215310
215310
215310
)
;

boundaryField
{
    wedge0
    {
        type            wedge;
    }
    wedge1
    {
        type            wedge;
    }
    wedge2
    {
        type            wedge;
    }
    wedge3
    {
        type            wedge;
    }
    outlet
    {
        type            zeroGradient;
    }
    defaultFaces
    {
        type            empty;
    }
}


// ************************************************************************* //
