/*--------------------------------*- C++ -*----------------------------------*\
| =========                 |                                                 |
| \\      /  F ield         | OpenFOAM: The Open Source CFD Toolbox           |
|  \\    /   O peration     | Version:  2312                                  |
|   \\  /    A nd           | Website:  www.openfoam.com                      |
|    \\/     M anipulation  |                                                 |
\*---------------------------------------------------------------------------*/
FoamFile
{
    version     2.0;
    format      ascii;
    arch        "LSB;label=32;scalar=64";
    class       volVectorField;
    location    "0.00012";
    object      U;
}
// * * * * * * * * * * * * * * * * * * * * * * * * * * * * * * * * * * * * * //

dimensions      [0 1 -1 0 0 0 0];

internalField   nonuniform List<vector> 
500
(
(2.03219 -3.53164e-10 3.52888e-10)
(3.65889 -3.38202e-10 3.3812e-10)
(5.47335 -3.52884e-10 3.51136e-10)
(7.40056 -3.53373e-10 3.51512e-10)
(9.37276 -3.3076e-10 3.28502e-10)
(11.3667 -3.31716e-10 3.28839e-10)
(13.3728 -3.29677e-10 3.25859e-10)
(15.3863 -3.24489e-10 3.21431e-10)
(17.4046 -3.09087e-10 3.06636e-10)
(19.4262 -2.88384e-10 2.86013e-10)
(21.4503 -2.69189e-10 2.67966e-10)
(23.4762 -2.52272e-10 2.5117e-10)
(25.5035 -2.36993e-10 2.35497e-10)
(27.5319 -2.21339e-10 2.19393e-10)
(29.5612 -2.05369e-10 2.03082e-10)
(31.5912 -1.8951e-10 1.86841e-10)
(33.6218 -1.7404e-10 1.73104e-10)
(35.6529 -1.65464e-10 1.65469e-10)
(37.6844 -1.57866e-10 1.57858e-10)
(39.7163 -1.55263e-10 1.55255e-10)
(41.7485 -1.53496e-10 1.53494e-10)
(43.781 -1.52045e-10 1.52047e-10)
(45.8138 -1.50163e-10 1.50158e-10)
(47.8468 -1.48881e-10 1.48882e-10)
(49.88 -1.46756e-10 1.46758e-10)
(51.9135 -1.43328e-10 1.43331e-10)
(53.9471 -1.40067e-10 1.40064e-10)
(55.9808 -1.38078e-10 1.38072e-10)
(58.0147 -1.32662e-10 1.32663e-10)
(60.0488 -1.27941e-10 1.27944e-10)
(62.083 -1.23896e-10 1.23898e-10)
(64.1174 -1.19763e-10 1.19734e-10)
(66.1518 -1.13249e-10 1.13193e-10)
(68.1864 -1.06972e-10 1.06937e-10)
(70.2212 -1.01574e-10 1.01558e-10)
(72.256 -9.72995e-11 9.72995e-11)
(74.291 -9.33158e-11 9.33158e-11)
(76.326 -9.01461e-11 9.01461e-11)
(78.3612 -8.76496e-11 8.76496e-11)
(80.3965 -8.47553e-11 8.47553e-11)
(82.4319 -8.03821e-11 8.03821e-11)
(84.4674 -7.53538e-11 7.53538e-11)
(86.5031 -7.01038e-11 7.01038e-11)
(88.5388 -6.48438e-11 6.48438e-11)
(90.5746 -6.03209e-11 6.03209e-11)
(92.6106 -5.56404e-11 5.56404e-11)
(94.6467 -4.99566e-11 4.99566e-11)
(96.6829 -4.48816e-11 4.48816e-11)
(98.7192 -3.87875e-11 3.87875e-11)
(100.756 -3.4103e-11 3.4103e-11)
(102.792 -2.89249e-11 2.89249e-11)
(104.829 -2.45957e-11 2.45957e-11)
(106.866 -2.05418e-11 2.05418e-11)
(108.902 -1.63908e-11 1.63908e-11)
(110.939 -1.18579e-11 1.18579e-11)
(112.977 -7.9996e-12 7.9996e-12)
(115.014 -4.73642e-12 4.73642e-12)
(117.051 -2.05363e-12 2.05363e-12)
(119.089 4.05541e-13 -4.05541e-13)
(121.127 2.74234e-12 -2.74234e-12)
(123.165 3.70546e-12 -3.70546e-12)
(125.203 4.69933e-12 -4.69933e-12)
(127.241 5.27216e-12 -5.27216e-12)
(129.279 5.45026e-12 -5.45026e-12)
(131.317 5.26282e-12 -5.26282e-12)
(133.356 5.00837e-12 -5.00837e-12)
(135.395 5.0284e-12 -5.0284e-12)
(137.434 5.3844e-12 -5.3844e-12)
(139.473 4.77819e-12 -4.77819e-12)
(141.512 4.41566e-12 -4.41566e-12)
(143.552 4.2497e-12 -4.2497e-12)
(145.592 4.10876e-12 -4.10876e-12)
(147.631 3.9411e-12 -3.9411e-12)
(149.672 3.99657e-12 -3.99657e-12)
(151.712 4.04547e-12 -4.04552e-12)
(153.752 4.30539e-12 -4.30365e-12)
(155.793 3.84415e-12 -3.84282e-12)
(157.834 3.49977e-12 -3.49974e-12)
(159.875 3.32132e-12 -3.32156e-12)
(161.917 3.14671e-12 -3.14462e-12)
(163.959 3.09903e-12 -3.06691e-12)
(166.001 2.85996e-12 -2.81561e-12)
(168.043 2.57182e-12 -2.50755e-12)
(170.085 1.71993e-12 -1.63612e-12)
(172.128 6.86243e-13 -5.83454e-13)
(174.171 -5.279e-13 6.03903e-13)
(176.215 -1.23359e-12 1.28388e-12)
(178.258 -1.919e-12 1.94692e-12)
(180.302 -2.13319e-12 2.13809e-12)
(182.347 -2.27182e-12 2.27655e-12)
(184.391 -2.52952e-12 2.54163e-12)
(186.437 -2.36061e-12 2.38068e-12)
(188.482 -2.25543e-12 2.36324e-12)
(190.528 -2.23538e-12 2.33599e-12)
(192.574 -1.82701e-12 1.91964e-12)
(194.621 -1.49528e-12 1.47539e-12)
(196.668 -1.28506e-12 1.15056e-12)
(198.715 -9.98101e-13 9.96449e-13)
(200.763 -7.2642e-13 7.3583e-13)
(202.811 -4.10071e-13 4.31812e-13)
(204.86 -3.06967e-13 3.42442e-13)
(206.909 -2.09146e-13 2.61386e-13)
(208.959 -8.6563e-15 6.49614e-14)
(211.009 0 -5.67529e-14)
(213.06 1.19955e-13 -3.74029e-13)
(215.112 4.30829e-13 -6.54696e-13)
(217.164 5.7164e-13 -7.64744e-13)
(219.217 8.98919e-13 -1.0613e-12)
(221.27 1.07303e-12 -1.20436e-12)
(223.324 1.42218e-12 -1.52182e-12)
(225.378 1.95438e-12 -2.02129e-12)
(227.434 2.64477e-12 -2.69595e-12)
(229.49 2.92944e-12 -2.96423e-12)
(231.546 3.1229e-12 -3.1471e-12)
(233.604 3.48318e-12 -3.49728e-12)
(235.662 3.46745e-12 -3.47135e-12)
(237.722 3.06698e-12 -3.05914e-12)
(239.782 2.7207e-12 -2.73617e-12)
(241.843 2.49047e-12 -2.47871e-12)
(243.904 2.16601e-12 -2.15991e-12)
(245.967 2.18876e-12 -2.18887e-12)
(248.031 2.25504e-12 -2.2548e-12)
(250.096 2.00312e-12 -2.00268e-12)
(252.162 1.85202e-12 -1.85149e-12)
(254.229 1.80704e-12 -1.80638e-12)
(256.297 1.6691e-12 -1.66879e-12)
(258.367 1.4309e-12 -1.43048e-12)
(260.438 1.08333e-12 -1.0834e-12)
(262.51 7.51122e-13 -7.51365e-13)
(264.583 4.68298e-13 -4.68302e-13)
(266.658 2.48677e-13 -2.48761e-13)
(268.734 9.43574e-14 -9.45629e-14)
(270.812 -4.26993e-15 4.25981e-15)
(272.891 -1.9639e-13 1.96386e-13)
(274.972 -3.40998e-13 3.40996e-13)
(277.055 -2.81628e-13 2.81627e-13)
(279.14 -1.40677e-13 1.40676e-13)
(281.226 -2.02059e-13 2.02059e-13)
(283.314 -2.02604e-13 2.02604e-13)
(285.405 -2.01769e-13 2.01769e-13)
(287.497 -2.01192e-13 2.01192e-13)
(289.591 -2.00195e-13 2.00195e-13)
(291.688 -2.26222e-13 2.26222e-13)
(293.787 -1.96992e-13 1.96992e-13)
(295.889 -1.95582e-13 1.95582e-13)
(297.993 -1.73452e-13 1.73452e-13)
(300.1 -2.06898e-13 2.06898e-13)
(302.209 -1.93997e-13 1.93997e-13)
(304.321 -1.39286e-13 1.39286e-13)
(306.437 -2.26524e-14 2.27934e-14)
(308.555 -3.61593e-14 3.62932e-14)
(310.677 -9.79541e-14 9.80815e-14)
(312.801 -2.90614e-14 2.91827e-14)
(314.93 8.25157e-15 -8.13612e-15)
(317.062 -8.35858e-14 8.38076e-14)
(319.198 -6.47855e-14 6.49957e-14)
(321.338 -8.5741e-14 8.58706e-14)
(323.481 -1.41404e-13 1.41495e-13)
(325.63 -8.96911e-14 8.97309e-14)
(327.782 -1.46575e-13 1.46631e-13)
(329.939 -1.82775e-13 1.82788e-13)
(332.101 -1.7918e-13 1.79207e-13)
(334.268 -1.40402e-13 1.40458e-13)
(336.441 -2.01439e-13 2.01509e-13)
(338.618 -1.79662e-13 1.79685e-13)
(340.802 -1.78602e-13 1.78583e-13)
(342.991 -1.7744e-13 1.77482e-13)
(345.186 -1.46696e-13 1.46726e-13)
(347.388 -1.77043e-13 1.77071e-13)
(349.597 -2.33311e-13 2.33365e-13)
(351.812 -2.87103e-13 2.87214e-13)
(354.035 -3.48978e-13 3.48877e-13)
(356.265 -3.58099e-13 3.57725e-13)
(358.503 -3.6495e-13 3.64624e-13)
(360.75 -4.12782e-13 4.12555e-13)
(363.004 -4.12712e-13 4.1255e-13)
(365.268 -3.62992e-13 3.62861e-13)
(367.541 -3.24865e-13 3.24776e-13)
(369.823 -3.02105e-13 3.02091e-13)
(372.116 -2.12191e-13 2.12215e-13)
(374.418 -1.52132e-13 1.52302e-13)
(376.732 -1.21143e-13 1.21432e-13)
(379.057 -7.90908e-14 7.93531e-14)
(381.393 -4.18092e-14 4.20096e-14)
(383.742 -1.15121e-14 1.16567e-14)
(386.103 0 0)
(388.478 0 0)
(390.866 0 0)
(393.268 0 0)
(395.686 0 0)
(398.118 2.60478e-14 -2.60478e-14)
(400.567 3.54214e-14 -3.54214e-14)
(403.032 1.59595e-14 -1.59595e-14)
(405.515 2.36412e-15 -2.36412e-15)
(408.015 1.37458e-14 -1.37458e-14)
(410.534 0 0)
(413.073 -2.03773e-14 2.03773e-14)
(415.631 -2.73216e-14 2.73216e-14)
(418.21 -8.55468e-15 8.55468e-15)
(420.811 2.64985e-14 -2.6484e-14)
(423.435 6.91948e-14 -6.91396e-14)
(426.081 6.71938e-14 -6.71014e-14)
(428.752 5.1087e-14 -5.10033e-14)
(431.448 3.18275e-14 -3.17426e-14)
(434.17 1.41981e-14 -1.41037e-14)
(436.918 4.66351e-15 -4.57109e-15)
(439.694 1.2838e-14 -1.27495e-14)
(442.499 3.6594e-15 -3.57243e-15)
(445.334 1.07803e-14 -1.06992e-14)
(448.2 3.97085e-16 -3.20896e-16)
(451.097 -9.30518e-16 9.94418e-16)
(454.028 -4.88395e-15 4.91114e-15)
(456.992 -1.85089e-14 1.85421e-14)
(459.992 -3.1194e-14 3.12223e-14)
(463.028 -6.40912e-14 6.41184e-14)
(466.102 -8.76284e-14 8.76588e-14)
(469.214 -8.80251e-14 8.80641e-14)
(472.366 -8.63081e-14 8.63539e-14)
(475.56 -7.38213e-14 7.38578e-14)
(478.795 -6.22976e-14 6.23238e-14)
(482.075 -5.17171e-14 5.17424e-14)
(485.399 -4.19694e-14 4.19833e-14)
(488.769 -3.30166e-14 3.30255e-14)
(492.187 -2.42444e-14 2.42444e-14)
(495.654 -4.04945e-15 4.04945e-15)
(499.171 8.80508e-16 -8.80508e-16)
(502.739 -2.5205e-15 2.5205e-15)
(506.36 -1.91405e-14 1.91405e-14)
(510.035 -2.21072e-14 2.21072e-14)
(513.765 -2.00535e-14 2.00535e-14)
(517.551 -4.2273e-14 4.2273e-14)
(521.395 -3.66937e-14 3.66937e-14)
(525.299 -3.88798e-14 3.88798e-14)
(529.262 -3.21725e-14 3.21725e-14)
(533.287 -2.61855e-14 2.61855e-14)
(537.374 -2.05306e-14 2.05306e-14)
(541.525 -1.53721e-14 1.53721e-14)
(545.74 -1.06814e-14 1.06814e-14)
(550.021 -6.54202e-15 6.54202e-15)
(554.368 -4.32169e-15 4.32169e-15)
(558.783 -2.14738e-14 2.14738e-14)
(563.265 -1.6099e-14 1.6099e-14)
(567.817 -3.16023e-14 3.16023e-14)
(572.437 -1.35557e-14 1.35557e-14)
(577.127 3.49271e-15 -3.49271e-15)
(581.887 1.83311e-14 -1.83311e-14)
(586.717 2.63631e-15 -2.63631e-15)
(591.616 1.39571e-15 -1.39571e-15)
(596.583 1.486e-14 -1.486e-14)
(601.619 1.10063e-15 -1.10063e-15)
(606.731 -2.65322e-16 2.65322e-16)
(611.91 3.09237e-15 -3.09237e-15)
(617.149 1.35979e-15 -1.35979e-15)
(622.441 7.91748e-16 -7.91748e-16)
(627.778 0 -1.07949e-34)
(633.145 0 1.17096e-34)
(638.52 -7.44864e-16 7.44864e-16)
(643.869 -9.48723e-15 9.48723e-15)
(649.138 -6.25812e-15 6.25812e-15)
(654.241 -3.59213e-15 3.59213e-15)
(659.041 -1.03755e-15 1.03755e-15)
(663.318 0 0)
(666.719 5.45541e-16 -5.45541e-16)
(668.668 2.25181e-15 -2.25181e-15)
(668.232 8.7513e-15 -8.7513e-15)
(663.881 6.80542e-15 -6.80542e-15)
(653.124 1.33871e-14 -1.33871e-14)
(631.922 1.17395e-14 -1.17395e-14)
(593.879 1.0759e-14 -1.0759e-14)
(529.636 1.00287e-14 -1.00287e-14)
(429.111 7.44552e-15 -7.44552e-15)
(290.772 3.40916e-15 -3.40916e-15)
(142.854 1.01845e-15 -1.01845e-15)
(43.8185 0 0)
(8.94331 -1.45562e-15 1.45562e-15)
(1.54489 -5.92007e-15 5.92007e-15)
(0.256372 -1.50164e-15 1.50164e-15)
(0.0420607 0 0)
(0.00685542 0 0)
(0.00111099 0 0)
(0.000179052 0 0)
(2.86996e-05 9.41209e-16 -9.41209e-16)
(4.57531e-06 4.71657e-15 -4.71657e-15)
(7.25495e-07 0 0)
(1.14422e-07 -4.65832e-15 4.65832e-15)
(1.79407e-08 -9.34518e-16 9.34518e-16)
(2.78715e-09 0 0)
(4.23691e-10 0 0)
(6.35021e-11 -2.71625e-15 2.71625e-15)
(9.68775e-12 0 0)
(1.95715e-12 0 0)
(4.48167e-12 1.77853e-15 -1.77853e-15)
(7.80344e-12 -1.75547e-15 1.75547e-15)
(1.32311e-12 0 0)
(-2.26277e-13 0 0)
(1.26359e-11 1.73299e-15 -1.73299e-15)
(2.04343e-11 -1.71006e-15 1.71006e-15)
(1.67824e-11 0 0)
(8.64542e-12 0 0)
(2.95791e-12 0 0)
(-4.41156e-12 -2.50428e-15 2.50428e-15)
(-7.09224e-12 -7.49802e-19 7.49802e-19)
(4.85758e-13 -2.47049e-15 2.47049e-15)
(7.71565e-12 0 0)
(3.1205e-12 2.43854e-15 -2.43854e-15)
(-3.45538e-12 0 0)
(-6.15015e-12 0 0)
(-1.26446e-11 0 0)
(-1.19917e-11 -4.75074e-15 4.75074e-15)
(-1.66166e-11 -4.73558e-15 4.73558e-15)
(-2.42684e-11 -1.60424e-17 1.60424e-17)
(-3.6925e-11 0 0)
(-3.0461e-11 0 0)
(-6.29986e-12 0 0)
(6.28665e-12 2.28362e-15 -2.28362e-15)
(1.04324e-11 0 0)
(6.61063e-12 0 0)
(2.55009e-11 -3.84066e-16 3.84066e-16)
(3.96599e-11 -5.23578e-15 5.23578e-15)
(2.65388e-11 -1.44972e-14 1.44972e-14)
(6.44855e-14 -1.92851e-14 1.92851e-14)
(-7.51492e-12 -1.96599e-14 1.96599e-14)
(8.78967e-12 -1.5671e-14 1.5671e-14)
(1.85346e-11 -1.60379e-14 1.60379e-14)
(1.54757e-11 -1.20956e-14 1.20956e-14)
(3.60938e-12 -3.89607e-15 3.89607e-15)
(-3.31579e-12 0 0)
(-8.00944e-12 0 0)
(-1.24773e-11 2.09515e-15 -2.09515e-15)
(-6.23349e-12 0 0)
(7.57881e-12 0 0)
(1.43751e-11 0 0)
(1.68837e-11 0 0)
(9.58332e-12 -4.06525e-15 4.06525e-15)
(-3.32271e-12 -4.05363e-15 4.05363e-15)
(-1.2336e-11 -1.27789e-17 1.27789e-17)
(-1.40396e-11 0 0)
(-2.08897e-11 0 0)
(-2.37918e-11 0 0)
(-2.24079e-11 0 0)
(-3.04792e-11 0 0)
(-1.64106e-11 -1.9368e-15 1.9368e-15)
(-1.92579e-12 0 0)
(-8.95099e-12 0 0)
(-1.60368e-11 1.90628e-15 -1.90628e-15)
(1.28316e-12 2.80426e-18 -2.80426e-18)
(1.69618e-11 1.88457e-15 -1.88457e-15)
(8.87075e-12 0 0)
(-5.07561e-12 -3.09654e-15 3.09654e-15)
(-5.58136e-12 -2.46339e-15 2.46339e-15)
(2.99362e-12 -5.52351e-15 5.52351e-15)
(1.6807e-12 -4.89684e-15 4.89684e-15)
(8.67296e-12 -6.22421e-16 6.22421e-16)
(1.60114e-11 0 0)
(1.42265e-11 0 0)
(5.31598e-12 1.78885e-15 -1.78885e-15)
(-6.94661e-13 0 0)
(8.20485e-13 -4.24139e-15 4.24139e-15)
(-1.79942e-12 -4.93168e-15 4.93168e-15)
(-8.39741e-12 -2.10969e-15 2.10969e-15)
(-1.71245e-11 -2.78991e-15 2.78991e-15)
(-1.88252e-11 0 0)
(-1.3039e-11 0 0)
(6.74669e-12 -1.71043e-15 1.71043e-15)
(8.30571e-12 1.94007e-18 -1.94007e-18)
(6.07588e-12 -1.69033e-15 1.69033e-15)
(9.48014e-12 0 0)
(-1.04176e-11 1.67413e-15 -1.67413e-15)
(-2.47406e-11 0 0)
(-1.36845e-11 0 0)
(-8.1228e-12 -7.97461e-16 7.97461e-16)
(-1.81076e-11 -4.87669e-15 4.87669e-15)
(-1.60055e-11 -5.66569e-15 5.66569e-15)
(-1.04703e-11 -9.69612e-15 9.69612e-15)
(-4.51598e-12 -1.04757e-14 1.04757e-14)
(-4.34988e-12 -8.03599e-15 8.03599e-15)
(-4.83728e-12 -2.4142e-15 2.4142e-15)
(-3.7118e-12 0 0)
(-1.05079e-11 0 0)
(-7.70991e-12 1.57118e-15 -1.57118e-15)
(-1.50488e-11 2.71733e-18 -2.71733e-18)
(-2.77565e-11 1.5533e-15 -1.5533e-15)
(-2.41389e-11 0 0)
(-1.23419e-11 0 0)
(2.64992e-12 -1.5291e-15 1.5291e-15)
(5.55299e-12 0 0)
(2.61868e-12 0 0)
(6.24481e-12 0 0)
(1.42635e-11 2.99397e-15 -2.99397e-15)
(9.75139e-12 2.98905e-15 -2.98905e-15)
(8.7957e-12 8.73602e-18 -8.73602e-18)
(1.96652e-11 0 0)
(1.05374e-11 0 0)
(-1.94052e-12 1.46019e-15 -1.46019e-15)
(-9.81428e-12 0 0)
(-5.3864e-12 0 0)
(7.11037e-12 0 0)
(7.49104e-12 0 0)
(-2.94362e-12 0 0)
(-1.04523e-11 0 0)
(-3.88319e-12 0 0)
(3.51938e-12 0 0)
(1.50015e-11 5.96198e-16 -5.96198e-16)
(3.01786e-11 3.97407e-15 -3.97407e-15)
(2.74337e-11 1.01028e-14 -1.01028e-14)
(1.69776e-11 1.34435e-14 -1.34435e-14)
(1.32654e-11 1.40273e-14 -1.40273e-14)
(1.05351e-11 6.41929e-15 -6.41929e-15)
(-2.57825e-12 1.56298e-15 -1.56298e-15)
(-1.38632e-11 -5.68957e-16 5.68957e-16)
(-1.44773e-11 0 0)
(-1.30396e-11 0 0)
(-6.89542e-12 0 0)
(-2.56179e-12 0 0)
(8.48745e-12 0 0)
(1.88519e-11 0 0)
(2.13215e-11 0 0)
(1.58762e-11 0 0)
(1.09213e-11 -8.6332e-16 8.6332e-16)
(2.20821e-11 8.53907e-16 -8.53907e-16)
(2.87758e-11 0 0)
(2.79559e-11 0 0)
(1.99253e-11 -1.26743e-15 1.26743e-15)
(1.06283e-11 -1.79693e-18 1.79693e-18)
(2.28949e-12 -1.25627e-15 1.25627e-15)
(-5.36568e-12 -1.53986e-18 1.53986e-18)
(-5.96717e-12 -1.24358e-15 1.24358e-15)
(-7.87001e-12 0 0)
(-1.30316e-11 -8.22128e-16 8.22128e-16)
(-1.42083e-11 8.16017e-16 -8.16017e-16)
(-6.72073e-12 0 0)
(-1.91318e-11 1.21359e-15 -1.21359e-15)
(-1.95711e-11 -7.9897e-19 7.9897e-19)
(-3.22431e-12 1.20259e-15 -1.20259e-15)
(7.3401e-12 0 0)
(1.57297e-11 7.96168e-16 -7.96168e-16)
(1.75251e-11 -7.89788e-16 7.89788e-16)
(2.33955e-12 0 0)
(-1.01881e-11 -9.22231e-16 9.22231e-16)
(-6.69141e-12 -4.1856e-15 4.1856e-15)
(-5.04808e-12 -9.76737e-15 9.76737e-15)
(-1.11732e-11 -8.35224e-15 8.35224e-15)
(-1.57651e-11 0 0)
(-2.53058e-11 8.27128e-15 -8.27128e-15)
(-2.13409e-11 9.62649e-15 -9.62649e-15)
(-5.3942e-12 4.1287e-15 -4.1287e-15)
(-3.56748e-12 9.26006e-16 -9.26006e-16)
(1.2928e-11 0 0)
(4.05823e-11 9.53667e-16 -9.53667e-16)
(4.61962e-11 4.14437e-15 -4.14437e-15)
(2.54391e-11 6.24716e-16 -6.24716e-16)
(2.49052e-11 -1.7224e-15 1.7224e-15)
(2.86919e-11 -6.27122e-15 6.27122e-15)
(1.60138e-11 -4.19079e-15 4.19079e-15)
(7.09881e-12 -4.31205e-15 4.31205e-15)
(-2.00231e-12 -6.61494e-15 6.61494e-15)
(-4.59888e-13 -1.1081e-14 1.1081e-14)
(-1.09569e-12 -1.76911e-14 1.76911e-14)
(-6.34591e-12 -2.6417e-14 2.6417e-14)
(-9.3473e-12 -2.8668e-14 2.8668e-14)
(-9.47692e-12 -2.81687e-14 2.81687e-14)
(-6.23146e-12 -2.53303e-14 2.53303e-14)
(-1.65338e-11 -1.60813e-14 1.60813e-14)
(-1.98415e-11 -8.88442e-15 8.88442e-15)
(-9.33624e-12 -3.8172e-15 3.8172e-15)
(-9.18193e-12 -8.61678e-16 8.61678e-16)
(6.45627e-13 0 0)
(2.3888e-11 0 0)
(1.19754e-11 0 0)
(-8.3464e-12 0 0)
(-1.62931e-11 0 0)
(-7.7716e-12 6.73757e-16 -6.73757e-16)
(8.45982e-12 3.28873e-15 -3.28873e-15)
(-2.03283e-12 -1.70447e-16 1.70447e-16)
(-1.52767e-11 -5.6246e-15 5.6246e-15)
(-3.49157e-12 -5.04451e-15 5.04451e-15)
(1.64059e-11 -6.46045e-15 6.46045e-15)
(2.58314e-11 -1.91121e-15 1.91121e-15)
(1.88756e-11 6.41744e-16 -6.41744e-16)
(-9.72283e-12 3.70505e-15 -3.70505e-15)
(-3.58985e-11 8.70948e-16 -8.70948e-16)
(-3.82102e-11 0 0)
(-2.56005e-11 0 0)
(-2.51034e-11 -3.41019e-16 3.41019e-16)
(-2.855e-11 -2.60977e-15 2.60977e-15)
(-9.63818e-12 -6.78995e-15 6.78995e-15)
(9.55427e-12 -5.21218e-15 5.21218e-15)
(9.68522e-12 -9.35784e-15 9.35784e-15)
(-6.32368e-12 -1.53836e-14 1.53836e-14)
(-2.20264e-11 -2.32236e-14 2.32236e-14)
(-1.58374e-11 -2.53833e-14 2.53833e-14)
(-2.35819e-13 -2.35419e-14 2.35419e-14)
(1.21443e-11 -1.61462e-14 1.61462e-14)
(1.68826e-11 -1.05699e-14 1.05699e-14)
(1.71109e-11 -6.86811e-15 6.86811e-15)
(3.02396e-11 -5.02586e-15 5.02586e-15)
(2.97263e-11 -5.02812e-15 5.02812e-15)
(1.93308e-11 -6.86021e-15 6.86021e-15)
(4.80507e-12 -3.21592e-15 3.21592e-15)
(-1.12042e-11 -1.40092e-15 1.40092e-15)
)
;

boundaryField
{
    wedge0
    {
        type            wedge;
    }
    wedge1
    {
        type            wedge;
    }
    wedge2
    {
        type            wedge;
    }
    wedge3
    {
        type            wedge;
    }
    outlet
    {
        type            zeroGradient;
    }
    defaultFaces
    {
        type            empty;
    }
}


// ************************************************************************* //
