/*--------------------------------*- C++ -*----------------------------------*\
| =========                 |                                                 |
| \\      /  F ield         | OpenFOAM: The Open Source CFD Toolbox           |
|  \\    /   O peration     | Version:  2212                                  |
|   \\  /    A nd           | Website:  www.openfoam.com                      |
|    \\/     M anipulation  |                                                 |
\*---------------------------------------------------------------------------*/
FoamFile
{
    version     2.0;
    format      ascii;
    arch        "LSB;label=32;scalar=64";
    class       volScalarField;
    location    "0.008";
    object      p;
}
// * * * * * * * * * * * * * * * * * * * * * * * * * * * * * * * * * * * * * //

dimensions      [1 -1 -2 0 0 0 0];

internalField   nonuniform List<scalar> 
100
(
99999
99998.7
99997.9
99996.3
99993.2
99987.2
99976.1
99956.2
99921.8
99864.6
99772.7
99630.5
99418.5
99114.1
98692.7
98129.6
97402.8
96494.8
95394.9
94099.4
92612.4
90944.7
89112.1
87134.4
85033.3
82831.1
80549.7
78209.9
75830.7
73429
71020
68616.6
66230.2
63870.2
61544.9
59261.1
57024.6
54840.3
52712.3
50644.3
48639.5
46701
44831.8
43034.8
41313.6
39672.1
38115.2
36648.8
35280.4
34018.9
32874.9
31860
30985.5
30259.7
29685.2
29255.1
28952.8
28754.1
28631.8
28561.1
28522.3
28501.9
28491.6
28486.7
28484.6
28484.1
28484.4
28485.3
28486.5
28487.9
28489.5
28491.1
28492.9
28494.7
28496.6
28498.5
28500.6
28502.7
28505
28507.4
28510
28512.8
28515.9
28519.1
28522.6
28526.3
28530.7
28536.5
28544.5
28544.7
28470.5
28079.5
26821.6
24040.3
19780.4
15333.7
12231.1
10757.7
10230.5
10067.2
)
;

boundaryField
{
    sides
    {
        type            zeroGradient;
    }
    empty
    {
        type            empty;
    }
}


// ************************************************************************* //
