/*--------------------------------*- C++ -*----------------------------------*\
| =========                 |                                                 |
| \\      /  F ield         | OpenFOAM: The Open Source CFD Toolbox           |
|  \\    /   O peration     | Version:  2312                                  |
|   \\  /    A nd           | Website:  www.openfoam.com                      |
|    \\/     M anipulation  |                                                 |
\*---------------------------------------------------------------------------*/
FoamFile
{
    version     2.0;
    format      ascii;
    arch        "LSB;label=32;scalar=64";
    class       volScalarField;
    location    "0.008";
    object      p;
}
// * * * * * * * * * * * * * * * * * * * * * * * * * * * * * * * * * * * * * //

dimensions      [1 -1 -2 0 0 0 0];

internalField   nonuniform List<scalar> 
100
(
100207
100206
100205
100204
100201
100195
100183
100163
100128
100070
99976.2
99831.9
99617.1
99309.1
98883.2
98314.8
97582
96667.5
95560.6
94258.1
92764.2
91089.6
89250.6
87266.9
85160.2
82952.8
80666.7
78322.6
75939.3
73534
71121.5
68715
66325.6
63962.9
61635
59348.7
57109.9
54923.4
52793.3
50723.3
48716.6
46776.3
44905.2
43106.5
41383.6
39740.4
38181.8
36713.7
35343.5
34080.2
32934.3
31917.6
31041.3
30314.1
29738.3
29307.6
29005.3
28807.3
28686.3
28617
28579.7
28560.6
28551.3
28547.1
28545.4
28545
28545.3
28546.1
28547.2
28548.5
28549.9
28551.5
28553.1
28554.8
28556.6
28558.4
28560.4
28562.5
28564.6
28567
28569.5
28572.2
28575.1
28578.2
28581.5
28585.1
28589.3
28594.8
28602.5
28603.5
28535.8
28168.6
26965
24258
20038.4
15551.8
12361.6
10821.7
10265.3
10092.2
)
;

boundaryField
{
    sides
    {
        type            zeroGradient;
    }
    empty
    {
        type            empty;
    }
}


// ************************************************************************* //
