/*--------------------------------*- C++ -*----------------------------------*\
| =========                 |                                                 |
| \\      /  F ield         | OpenFOAM: The Open Source CFD Toolbox           |
|  \\    /   O peration     | Version:  2312                                  |
|   \\  /    A nd           | Website:  www.openfoam.com                      |
|    \\/     M anipulation  |                                                 |
\*---------------------------------------------------------------------------*/
FoamFile
{
    version     2.0;
    format      ascii;
    arch        "LSB;label=32;scalar=64";
    class       volScalarField;
    location    "0.008";
    object      p;
}
// * * * * * * * * * * * * * * * * * * * * * * * * * * * * * * * * * * * * * //

dimensions      [1 -1 -2 0 0 0 0];

internalField   nonuniform List<scalar> 
100
(
320686
315319
309707
304099
298515
292964
287452
281985
276567
271202
265894
260646
255460
250339
245285
240298
235380
230531
225754
221048
216413
211852
207363
202948
198607
194341
190151
186037
182000
178041
174162
170364
166649
163017
159473
156017
152655
149388
146222
143161
140212
137382
134678
132110
129689
127425
125329
123414
121690
120165
118843
117725
116804
116069
115500
115075
114769
114558
114418
114330
114278
114250
114236
114233
114234
114239
114245
114253
114260
114268
114275
114282
114289
114296
114303
114313
114327
114350
114393
114469
114599
114806
115109
115520
116028
116601
117191
117743
118216
118584
118845
119013
119109
119156
119172
119172
119163
119150
119136
119121
)
;

boundaryField
{
    sides
    {
        type            zeroGradient;
    }
    empty
    {
        type            empty;
    }
}


// ************************************************************************* //
