/*--------------------------------*- C++ -*----------------------------------*\
| =========                 |                                                 |
| \\      /  F ield         | OpenFOAM: The Open Source CFD Toolbox           |
|  \\    /   O peration     | Version:  2212                                  |
|   \\  /    A nd           | Website:  www.openfoam.com                      |
|    \\/     M anipulation  |                                                 |
\*---------------------------------------------------------------------------*/
FoamFile
{
    version     2.0;
    format      ascii;
    arch        "LSB;label=32;scalar=64";
    class       volScalarField;
    location    "0.008";
    object      rho;
}
// * * * * * * * * * * * * * * * * * * * * * * * * * * * * * * * * * * * * * //

dimensions      [1 -3 0 0 0 0 0];

internalField   nonuniform List<scalar> 
100
(
1.16102
1.16101
1.16101
1.161
1.16097
1.16092
1.16083
1.16066
1.16038
1.1599
1.15914
1.15796
1.1562
1.15367
1.15015
1.14546
1.13938
1.13176
1.1225
1.11155
1.09892
1.08468
1.06894
1.05183
1.03353
1.01421
0.994022
0.973143
0.951721
0.929896
0.907792
0.885521
0.863181
0.840857
0.818626
0.796553
0.774697
0.753111
0.731841
0.710933
0.690427
0.670365
0.650791
0.631749
0.613292
0.59548
0.578383
0.562089
0.546701
0.532347
0.519174
0.507342
0.49701
0.488299
0.481258
0.475816
0.471776
0.468833
0.466631
0.464809
0.463033
0.460983
0.458329
0.45471
0.449727
0.442982
0.434142
0.423019
0.409648
0.394309
0.377509
0.359907
0.342219
0.325123
0.309183
0.294812
0.282257
0.271617
0.262862
0.255867
0.250444
0.246367
0.243399
0.24131
0.239893
0.23897
0.238396
0.238065
0.2379
0.237784
0.237281
0.234923
0.227386
0.210534
0.184003
0.154929
0.133224
0.122161
0.117987
0.116657
)
;

boundaryField
{
    sides
    {
        type            zeroGradient;
    }
    empty
    {
        type            empty;
    }
}


// ************************************************************************* //
