/*--------------------------------*- C++ -*----------------------------------*\
| =========                 |                                                 |
| \\      /  F ield         | OpenFOAM: The Open Source CFD Toolbox           |
|  \\    /   O peration     | Version:  2312                                  |
|   \\  /    A nd           | Website:  www.openfoam.com                      |
|    \\/     M anipulation  |                                                 |
\*---------------------------------------------------------------------------*/
FoamFile
{
    version     2.0;
    format      ascii;
    arch        "LSB;label=32;scalar=64";
    class       volScalarField;
    location    "0.008";
    object      rho;
}
// * * * * * * * * * * * * * * * * * * * * * * * * * * * * * * * * * * * * * //

dimensions      [1 -3 0 0 0 0 0];

internalField   nonuniform List<scalar> 
100
(
1.16102
1.16101
1.16101
1.16099
1.16097
1.16092
1.16082
1.16066
1.16037
1.15988
1.15911
1.15791
1.15613
1.15358
1.15003
1.1453
1.13918
1.13153
1.12223
1.11124
1.09858
1.0843
1.06854
1.05141
1.0331
1.01376
0.993577
0.972698
0.951281
0.929463
0.90737
0.885112
0.862786
0.840479
0.818265
0.79621
0.774373
0.752807
0.731557
0.710668
0.690182
0.67014
0.650584
0.631561
0.613121
0.595325
0.578242
0.56196
0.546583
0.532236
0.519067
0.507237
0.496904
0.488192
0.48115
0.475711
0.471679
0.46875
0.466567
0.46477
0.463021
0.461001
0.45838
0.454798
0.44986
0.443168
0.434386
0.423325
0.410013
0.394725
0.377961
0.360378
0.34269
0.325577
0.309606
0.295194
0.282593
0.271904
0.263102
0.256064
0.250602
0.246492
0.243496
0.241385
0.23995
0.239012
0.238427
0.238087
0.237914
0.237798
0.237331
0.235116
0.22792
0.211563
0.185381
0.156186
0.133988
0.122484
0.118096
0.116691
)
;

boundaryField
{
    sides
    {
        type            zeroGradient;
    }
    empty
    {
        type            empty;
    }
}


// ************************************************************************* //
