/*--------------------------------*- C++ -*----------------------------------*\
| =========                 |                                                 |
| \\      /  F ield         | OpenFOAM: The Open Source CFD Toolbox           |
|  \\    /   O peration     | Version:  2312                                  |
|   \\  /    A nd           | Website:  www.openfoam.com                      |
|    \\/     M anipulation  |                                                 |
\*---------------------------------------------------------------------------*/
FoamFile
{
    version     2.0;
    format      ascii;
    arch        "LSB;label=32;scalar=64";
    class       volScalarField;
    location    "0.008";
    object      rho;
}
// * * * * * * * * * * * * * * * * * * * * * * * * * * * * * * * * * * * * * //

dimensions      [1 -3 0 0 0 0 0];

internalField   nonuniform List<scalar> 
100
(
0.995748
0.985671
0.975051
0.964359
0.953632
0.942884
0.932128
0.921374
0.910633
0.899913
0.889222
0.878566
0.867951
0.857382
0.846865
0.836402
0.825998
0.815655
0.805377
0.795167
0.785027
0.77496
0.764968
0.755056
0.745225
0.735479
0.725822
0.716257
0.706788
0.697421
0.688161
0.679013
0.669984
0.661082
0.652315
0.643692
0.635227
0.626931
0.618819
0.610911
0.603226
0.595787
0.588623
0.581763
0.575242
0.569096
0.563366
0.558089
0.553302
0.549035
0.545309
0.542129
0.539483
0.53734
0.535653
0.53436
0.533393
0.532682
0.532163
0.531778
0.531484
0.531244
0.531034
0.530834
0.530631
0.530414
0.530174
0.529901
0.529584
0.529209
0.528755
0.528194
0.527489
0.526585
0.525415
0.523887
0.521892
0.5193
0.515969
0.511753
0.506511
0.500114
0.492446
0.483406
0.472907
0.460895
0.447379
0.432466
0.41638
0.399448
0.382068
0.364656
0.347599
0.33123
0.315806
0.30151
0.288471
0.276808
0.266801
0.259516
)
;

boundaryField
{
    sides
    {
        type            zeroGradient;
    }
    empty
    {
        type            empty;
    }
}


// ************************************************************************* //
