/*--------------------------------*- C++ -*----------------------------------*\
| =========                 |                                                 |
| \\      /  F ield         | OpenFOAM: The Open Source CFD Toolbox           |
|  \\    /   O peration     | Version:  2312                                  |
|   \\  /    A nd           | Website:  www.openfoam.com                      |
|    \\/     M anipulation  |                                                 |
\*---------------------------------------------------------------------------*/
FoamFile
{
    version     2.0;
    format      ascii;
    arch        "LSB;label=32;scalar=64";
    class       volScalarField;
    location    "0.008";
    object      T;
}
// * * * * * * * * * * * * * * * * * * * * * * * * * * * * * * * * * * * * * //

dimensions      [0 0 0 1 0 0 0];

internalField   nonuniform List<scalar> 
100
(
300
299.999
299.999
299.997
299.995
299.989
299.98
299.962
299.932
299.882
299.803
299.679
299.495
299.231
298.865
298.375
297.741
296.947
295.979
294.832
293.504
291.999
290.326
288.496
286.522
284.418
282.2
279.88
277.473
274.991
272.445
269.846
267.203
264.524
261.816
259.088
256.345
253.593
250.838
248.087
245.345
242.618
239.914
237.242
234.609
232.028
229.514
227.083
224.759
222.567
220.54
218.717
217.136
215.832
214.832
214.141
213.745
213.612
213.709
214.017
214.546
215.342
216.503
218.175
220.557
223.885
228.414
234.389
242.008
251.392
262.556
275.381
289.611
304.852
320.598
336.272
351.291
365.126
377.37
387.774
396.26
402.906
407.905
411.517
414.026
415.704
416.784
417.46
417.875
418.095
417.926
416.433
411.227
398.546
375.716
346.1
320.681
307.1
302.133
300.617
)
;

boundaryField
{
    sides
    {
        type            zeroGradient;
    }
    empty
    {
        type            empty;
    }
}


// ************************************************************************* //
