/*--------------------------------*- C++ -*----------------------------------*\
| =========                 |                                                 |
| \\      /  F ield         | OpenFOAM: The Open Source CFD Toolbox           |
|  \\    /   O peration     | Version:  2312                                  |
|   \\  /    A nd           | Website:  www.openfoam.com                      |
|    \\/     M anipulation  |                                                 |
\*---------------------------------------------------------------------------*/
FoamFile
{
    version     2.0;
    format      ascii;
    arch        "LSB;label=32;scalar=64";
    class       volScalarField;
    location    "0.008";
    object      T;
}
// * * * * * * * * * * * * * * * * * * * * * * * * * * * * * * * * * * * * * //

dimensions      [0 0 0 1 0 0 0];

internalField   nonuniform List<scalar> 
100
(
271.14
269.329
267.415
265.484
263.542
261.589
259.63
257.664
255.694
253.721
251.746
249.77
247.795
245.821
243.848
241.879
239.913
237.951
235.993
234.041
232.094
230.153
228.219
226.292
224.373
222.463
220.562
218.672
216.793
214.926
213.073
211.234
209.411
207.607
205.822
204.06
202.323
200.613
198.935
197.292
195.69
194.134
192.63
191.185
189.809
188.509
187.295
186.177
185.164
184.264
183.483
182.823
182.283
181.857
181.535
181.305
181.151
181.059
181.015
181.006
181.024
181.06
181.111
181.173
181.245
181.327
181.42
181.524
181.645
181.785
181.953
182.157
182.412
182.736
183.155
183.705
184.43
185.389
186.655
188.318
190.483
193.267
196.795
201.191
206.561
212.992
220.537
229.217
239.028
249.936
261.881
274.773
288.489
302.864
317.701
332.763
347.778
362.393
375.942
386.445
)
;

boundaryField
{
    sides
    {
        type            zeroGradient;
    }
    empty
    {
        type            empty;
    }
}


// ************************************************************************* //
