/*--------------------------------*- C++ -*----------------------------------*\
| =========                 |                                                 |
| \\      /  F ield         | OpenFOAM: The Open Source CFD Toolbox           |
|  \\    /   O peration     | Version:  2212                                  |
|   \\  /    A nd           | Website:  www.openfoam.com                      |
|    \\/     M anipulation  |                                                 |
\*---------------------------------------------------------------------------*/
FoamFile
{
    version     2.0;
    format      ascii;
    arch        "LSB;label=32;scalar=64";
    class       volScalarField;
    location    "0.008";
    object      T;
}
// * * * * * * * * * * * * * * * * * * * * * * * * * * * * * * * * * * * * * //

dimensions      [0 0 0 1 0 0 0];

internalField   nonuniform List<scalar> 
100
(
300
299.999
299.999
299.997
299.995
299.99
299.98
299.963
299.934
299.885
299.806
299.684
299.502
299.24
298.877
298.391
297.761
296.971
296.007
294.864
293.54
292.039
290.368
288.541
286.568
284.466
282.249
279.93
277.523
275.041
272.495
269.895
267.25
264.57
261.861
259.131
256.386
253.632
250.876
248.122
245.378
242.649
239.943
237.268
234.633
232.05
229.534
227.101
224.775
222.582
220.554
218.73
217.149
215.845
214.845
214.154
213.756
213.622
213.717
214.025
214.554
215.354
216.523
218.208
220.61
223.965
228.528
234.544
242.21
251.645
262.858
275.73
289.998
305.267
321.026
336.699
351.7
365.505
377.709
388.067
396.507
403.109
408.068
411.646
414.128
415.784
416.847
417.511
417.917
418.126
417.923
416.321
410.851
397.725
374.432
344.728
319.778
306.727
302.014
300.582
)
;

boundaryField
{
    sides
    {
        type            zeroGradient;
    }
    empty
    {
        type            empty;
    }
}


// ************************************************************************* //
