/*--------------------------------*- C++ -*----------------------------------*\
| =========                 |                                                 |
| \\      /  F ield         | OpenFOAM: The Open Source CFD Toolbox           |
|  \\    /   O peration     | Version:  2312                                  |
|   \\  /    A nd           | Website:  www.openfoam.com                      |
|    \\/     M anipulation  |                                                 |
\*---------------------------------------------------------------------------*/
FoamFile
{
    version     2.0;
    format      ascii;
    arch        "LSB;label=32;scalar=64";
    class       volScalarField;
    location    "0.008";
    object      thermo:e;
}
// * * * * * * * * * * * * * * * * * * * * * * * * * * * * * * * * * * * * * //

dimensions      [0 2 -2 0 0 0 0];

internalField   nonuniform List<scalar> 
100
(
215760
215760
215759
215758
215756
215752
215745
215733
215711
215675
215618
215529
215397
215207
214944
214591
214136
213564
212868
212043
211088
210006
208802
207486
206066
204553
202958
201290
199559
197774
195943
194073
192172
190245
188298
186336
184363
182384
180403
178424
176452
174491
172546
170624
168731
166875
165066
163318
161646
160070
158613
157301
156164
155227
154507
154010
153725
153629
153699
153921
154301
154874
155709
156912
158625
161018
164275
168572
174052
180801
188830
198054
208288
219250
230574
241847
252648
262598
271404
278887
284990
289770
293365
295963
297768
298974
299751
300237
300536
300694
300572
299498
295754
286634
270215
248915
230634
220866
217294
216204
)
;

boundaryField
{
    sides
    {
        type            zeroGradient;
    }
    empty
    {
        type            empty;
    }
}


// ************************************************************************* //
