/*--------------------------------*- C++ -*----------------------------------*\
| =========                 |                                                 |
| \\      /  F ield         | OpenFOAM: The Open Source CFD Toolbox           |
|  \\    /   O peration     | Version:  2212                                  |
|   \\  /    A nd           | Website:  www.openfoam.com                      |
|    \\/     M anipulation  |                                                 |
\*---------------------------------------------------------------------------*/
FoamFile
{
    version     2.0;
    format      ascii;
    arch        "LSB;label=32;scalar=64";
    class       volScalarField;
    location    "0.008";
    object      thermo:e;
}
// * * * * * * * * * * * * * * * * * * * * * * * * * * * * * * * * * * * * * //

dimensions      [0 2 -2 0 0 0 0];

internalField   nonuniform List<scalar> 
100
(
215310
215310
215309
215308
215306
215303
215296
215283
215262
215227
215171
215083
214952
214765
214504
214155
213703
213136
212445
211624
210674
209596
208397
207086
205670
204161
202570
200906
199178
197397
195569
193703
191805
189882
187938
185978
184008
182032
180054
178077
176108
174149
172207
170287
168396
166543
164736
162991
161321
159747
158292
156983
155848
154912
154194
153698
153413
153316
153385
153605
153985
154560
155398
156608
158332
160740
164015
168332
173834
180606
188653
197891
208132
219090
230400
241649
252415
262323
271082
278516
284573
289311
292870
295438
297220
298408
299171
299647
299939
300089
299943
298793
294868
285447
268730
247411
229504
220138
216755
215727
)
;

boundaryField
{
    sides
    {
        type            zeroGradient;
    }
    empty
    {
        type            empty;
    }
}


// ************************************************************************* //
