/*--------------------------------*- C++ -*----------------------------------*\
| =========                 |                                                 |
| \\      /  F ield         | OpenFOAM: The Open Source CFD Toolbox           |
|  \\    /   O peration     | Version:  2312                                  |
|   \\  /    A nd           | Website:  www.openfoam.com                      |
|    \\/     M anipulation  |                                                 |
\*---------------------------------------------------------------------------*/
FoamFile
{
    version     2.0;
    format      ascii;
    arch        "LSB;label=32;scalar=64";
    class       volScalarField;
    location    "0.008";
    object      thermo:e;
}
// * * * * * * * * * * * * * * * * * * * * * * * * * * * * * * * * * * * * * //

dimensions      [0 2 -2 0 0 0 0];

internalField   nonuniform List<scalar> 
100
(
483036
479809
476401
472960
469499
466021
462530
459028
455518
452003
448485
444965
441446
437929
434416
430907
427405
423909
420422
416943
413475
410017
406572
403139
399721
396318
392932
389564
386217
382891
379589
376313
373067
369852
366673
363533
360438
357392
354402
351476
348622
345849
343170
340597
338144
335828
333666
331674
329870
328266
326875
325699
324737
323978
323405
322994
322721
322557
322478
322463
322494
322559
322650
322760
322889
323034
323199
323386
323600
323851
324149
324513
324967
325544
326291
327270
328561
330270
332526
335489
339345
344305
350591
358421
367989
379445
392886
408351
425829
445261
466541
489509
513943
539553
565984
592817
619567
645603
669740
688452
)
;

boundaryField
{
    sides
    {
        type            zeroGradient;
    }
    empty
    {
        type            empty;
    }
}


// ************************************************************************* //
