/*--------------------------------*- C++ -*----------------------------------*\
| =========                 |                                                 |
| \\      /  F ield         | OpenFOAM: The Open Source CFD Toolbox           |
|  \\    /   O peration     | Version:  2312                                  |
|   \\  /    A nd           | Website:  www.openfoam.com                      |
|    \\/     M anipulation  |                                                 |
\*---------------------------------------------------------------------------*/
FoamFile
{
    version     2.0;
    format      ascii;
    arch        "LSB;label=32;scalar=64";
    class       volVectorField;
    location    "0.008";
    object      U;
}
// * * * * * * * * * * * * * * * * * * * * * * * * * * * * * * * * * * * * * //

dimensions      [0 1 -1 0 0 0 0];

internalField   nonuniform List<vector> 
100
(
(120 0 0)
(126.972 0 0)
(134.397 0 0)
(141.956 0 0)
(149.626 0 0)
(157.397 0 0)
(165.263 0 0)
(173.217 0 0)
(181.253 0 0)
(189.364 0 0)
(197.546 0 0)
(205.794 0 0)
(214.102 0 0)
(222.465 0 0)
(230.879 0 0)
(239.339 0 0)
(247.84 0 0)
(256.379 0 0)
(264.952 0 0)
(273.553 0 0)
(282.178 0 0)
(290.825 0 0)
(299.487 0 0)
(308.163 0 0)
(316.846 0 0)
(325.533 0 0)
(334.22 0 0)
(342.901 0 0)
(351.572 0 0)
(360.227 0 0)
(368.859 0 0)
(377.463 0 0)
(386.029 0 0)
(394.549 0 0)
(403.013 0 0)
(411.408 0 0)
(419.721 0 0)
(427.935 0 0)
(436.032 0 0)
(443.988 0 0)
(451.778 0 0)
(459.372 0 0)
(466.734 0 0)
(473.827 0 0)
(480.605 0 0)
(487.02 0 0)
(493.023 0 0)
(498.561 0 0)
(503.587 0 0)
(508.06 0 0)
(511.954 0 0)
(515.256 0 0)
(517.978 0 0)
(520.152 0 0)
(521.831 0 0)
(523.082 0 0)
(523.98 0 0)
(524.6 0 0)
(525.01 0 0)
(525.27 0 0)
(525.427 0 0)
(525.515 0 0)
(525.56 0 0)
(525.578 0 0)
(525.582 0 0)
(525.577 0 0)
(525.567 0 0)
(525.556 0 0)
(525.545 0 0)
(525.534 0 0)
(525.524 0 0)
(525.515 0 0)
(525.507 0 0)
(525.499 0 0)
(525.488 0 0)
(525.47 0 0)
(525.435 0 0)
(525.364 0 0)
(525.224 0 0)
(524.964 0 0)
(524.517 0 0)
(523.808 0 0)
(522.772 0 0)
(521.385 0 0)
(519.683 0 0)
(517.772 0 0)
(515.805 0 0)
(513.948 0 0)
(512.335 0 0)
(511.038 0 0)
(510.071 0 0)
(509.393 0 0)
(508.94 0 0)
(508.644 0 0)
(508.446 0 0)
(508.301 0 0)
(508.182 0 0)
(508.072 0 0)
(507.965 0 0)
(507.847 0 0)
)
;

boundaryField
{
    sides
    {
        type            zeroGradient;
    }
    empty
    {
        type            empty;
    }
}


// ************************************************************************* //
