/*--------------------------------*- C++ -*----------------------------------*\
| =========                 |                                                 |
| \\      /  F ield         | OpenFOAM: The Open Source CFD Toolbox           |
|  \\    /   O peration     | Version:  2212                                  |
|   \\  /    A nd           | Website:  www.openfoam.com                      |
|    \\/     M anipulation  |                                                 |
\*---------------------------------------------------------------------------*/
FoamFile
{
    version     2.0;
    format      ascii;
    arch        "LSB;label=32;scalar=64";
    class       volVectorField;
    location    "0.008";
    object      U;
}
// * * * * * * * * * * * * * * * * * * * * * * * * * * * * * * * * * * * * * //

dimensions      [0 1 -1 0 0 0 0];

internalField   nonuniform List<vector> 
100
(
(0.000714688 0 0)
(0.00160704 0 0)
(0.00350267 0 0)
(0.00739807 0 0)
(0.015138 0 0)
(0.0300002 0 0)
(0.0575666 0 0)
(0.106928 0 0)
(0.192218 0 0)
(0.334354 0 0)
(0.562728 0 0)
(0.916437 0 0)
(1.44454 0 0)
(2.20487 0 0)
(3.26122 0 0)
(4.67901 0 0)
(6.52012 0 0)
(8.83767 0 0)
(11.6719 0 0)
(15.0475 0 0)
(18.9733 0 0)
(23.4432 0 0)
(28.4386 0 0)
(33.9315 0 0)
(39.8877 0 0)
(46.2692 0 0)
(53.0373 0 0)
(60.1534 0 0)
(67.581 0 0)
(75.2857 0 0)
(83.2358 0 0)
(91.4026 0 0)
(99.7599 0 0)
(108.284 0 0)
(116.952 0 0)
(125.746 0 0)
(134.644 0 0)
(143.631 0 0)
(152.686 0 0)
(161.793 0 0)
(170.931 0 0)
(180.08 0 0)
(189.214 0 0)
(198.306 0 0)
(207.32 0 0)
(216.216 0 0)
(224.938 0 0)
(233.423 0 0)
(241.585 0 0)
(249.325 0 0)
(256.521 0 0)
(263.04 0 0)
(268.747 0 0)
(273.534 0 0)
(277.343 0 0)
(280.195 0 0)
(282.193 0 0)
(283.5 0 0)
(284.301 0 0)
(284.764 0 0)
(285.02 0 0)
(285.158 0 0)
(285.232 0 0)
(285.273 0 0)
(285.296 0 0)
(285.31 0 0)
(285.319 0 0)
(285.326 0 0)
(285.333 0 0)
(285.339 0 0)
(285.347 0 0)
(285.355 0 0)
(285.364 0 0)
(285.375 0 0)
(285.388 0 0)
(285.402 0 0)
(285.418 0 0)
(285.437 0 0)
(285.457 0 0)
(285.479 0 0)
(285.504 0 0)
(285.531 0 0)
(285.561 0 0)
(285.594 0 0)
(285.629 0 0)
(285.667 0 0)
(285.713 0 0)
(285.777 0 0)
(285.859 0 0)
(285.797 0 0)
(284.671 0 0)
(279.454 0 0)
(263.801 0 0)
(229.798 0 0)
(174.282 0 0)
(106.865 0 0)
(49.8257 0 0)
(18.0636 0 0)
(5.64795 0 0)
(1.66302 0 0)
)
;

boundaryField
{
    sides
    {
        type            zeroGradient;
    }
    empty
    {
        type            empty;
    }
}


// ************************************************************************* //
