/*--------------------------------*- C++ -*----------------------------------*\
| =========                 |                                                 |
| \\      /  F ield         | OpenFOAM: The Open Source CFD Toolbox           |
|  \\    /   O peration     | Version:  2312                                  |
|   \\  /    A nd           | Website:  www.openfoam.com                      |
|    \\/     M anipulation  |                                                 |
\*---------------------------------------------------------------------------*/
FoamFile
{
    version     2.0;
    format      ascii;
    arch        "LSB;label=32;scalar=64";
    class       volVectorField;
    location    "0.008";
    object      U;
}
// * * * * * * * * * * * * * * * * * * * * * * * * * * * * * * * * * * * * * //

dimensions      [0 1 -1 0 0 0 0];

internalField   nonuniform List<vector> 
100
(
(0.000737783 0 0)
(0.00165636 0 0)
(0.00360453 0 0)
(0.00760148 0 0)
(0.0155305 0 0)
(0.0307319 0 0)
(0.0588835 0 0)
(0.109216 0 0)
(0.196051 0 0)
(0.340545 0 0)
(0.57237 0 0)
(0.930915 0 0)
(1.4655 0 0)
(2.23415 0 0)
(3.30072 0 0)
(4.73057 0 0)
(6.5853 0 0)
(8.91768 0 0)
(11.7675 0 0)
(15.159 0 0)
(19.1007 0 0)
(23.5859 0 0)
(28.5959 0 0)
(34.1024 0 0)
(40.0712 0 0)
(46.4644 0 0)
(53.2431 0 0)
(60.369 0 0)
(67.8054 0 0)
(75.5182 0 0)
(83.4758 0 0)
(91.6494 0 0)
(100.013 0 0)
(108.542 0 0)
(117.216 0 0)
(126.014 0 0)
(134.918 0 0)
(143.908 0 0)
(152.967 0 0)
(162.078 0 0)
(171.219 0 0)
(180.37 0 0)
(189.508 0 0)
(198.602 0 0)
(207.619 0 0)
(216.518 0 0)
(225.244 0 0)
(233.732 0 0)
(241.899 0 0)
(249.643 0 0)
(256.845 0 0)
(263.371 0 0)
(269.086 0 0)
(273.879 0 0)
(277.692 0 0)
(280.545 0 0)
(282.54 0 0)
(283.841 0 0)
(284.632 0 0)
(285.084 0 0)
(285.329 0 0)
(285.458 0 0)
(285.525 0 0)
(285.561 0 0)
(285.582 0 0)
(285.595 0 0)
(285.605 0 0)
(285.613 0 0)
(285.62 0 0)
(285.628 0 0)
(285.636 0 0)
(285.645 0 0)
(285.655 0 0)
(285.667 0 0)
(285.68 0 0)
(285.694 0 0)
(285.71 0 0)
(285.728 0 0)
(285.748 0 0)
(285.771 0 0)
(285.795 0 0)
(285.822 0 0)
(285.851 0 0)
(285.883 0 0)
(285.917 0 0)
(285.954 0 0)
(285.998 0 0)
(286.059 0 0)
(286.139 0 0)
(286.091 0 0)
(285.057 0 0)
(280.142 0 0)
(265.146 0 0)
(232.11 0 0)
(177.453 0 0)
(110.079 0 0)
(52.0031 0 0)
(19.0368 0 0)
(5.98004 0 0)
(1.76412 0 0)
)
;

boundaryField
{
    sides
    {
        type            zeroGradient;
    }
    empty
    {
        type            empty;
    }
}


// ************************************************************************* //
