/*--------------------------------*- C++ -*----------------------------------*\
| =========                 |                                                 |
| \\      /  F ield         | OpenFOAM: The Open Source CFD Toolbox           |
|  \\    /   O peration     | Version:  2312                                  |
|   \\  /    A nd           | Website:  www.openfoam.com                      |
|    \\/     M anipulation  |                                                 |
\*---------------------------------------------------------------------------*/
FoamFile
{
    version     2.0;
    format      ascii;
    arch        "LSB;label=32;scalar=64";
    class       volScalarField;
    location    "5e-05";
    object      p;
}
// * * * * * * * * * * * * * * * * * * * * * * * * * * * * * * * * * * * * * //

dimensions      [1 -1 -2 0 0 0 0];

internalField   nonuniform List<scalar> 
500
(
765384
765752
765980
766135
766253
766349
766431
766502
766566
766624
766679
766729
766777
766823
766868
766911
766953
766994
767035
767075
767115
767155
767195
767235
767275
767316
767357
767398
767440
767483
767526
767570
767615
767661
767708
767756
767805
767855
767906
767959
768013
768068
768125
768184
768244
768306
768370
768436
768503
768573
768645
768720
768797
768876
768958
769043
769131
769221
769315
769413
769513
769618
769726
769838
769954
770075
770200
770330
770464
770605
770750
770902
771059
771223
771393
771570
771755
771947
772147
772356
772574
772801
773037
773284
773542
773811
774093
774386
774693
775014
775350
775701
776068
776453
776855
777277
777718
778181
778667
779175
779709
780269
780857
781473
782121
782802
783517
784268
785058
785889
786762
787682
788649
789668
790740
791870
793060
794314
795636
797031
798501
800052
801688
803416
805239
807165
809199
811348
813620
816021
818559
821244
824085
827090
830272
833641
837208
840988
844993
849239
853741
858516
863582
868960
874670
880736
887181
894032
901318
909070
917321
926108
935470
945450
956095
967455
979586
992548
1.00641e+06
1.02124e+06
1.03711e+06
1.05412e+06
1.07236e+06
1.09194e+06
1.11297e+06
1.13557e+06
1.15989e+06
1.18607e+06
1.21428e+06
1.24469e+06
1.27745e+06
1.31267e+06
1.35061e+06
1.39148e+06
1.43544e+06
1.48262e+06
1.53301e+06
1.58641e+06
1.64223e+06
1.69924e+06
1.75508e+06
1.80551e+06
1.84323e+06
1.85624e+06
1.82584e+06
1.72551e+06
1.52412e+06
1.20125e+06
785089
396615
172499
109018
100789
100063
100003
99998
99997.6
99997.6
99997.6
99997.6
99997.6
99997.6
99997.6
99997.6
99997.6
99997.6
99997.6
99997.6
99997.6
99997.6
99997.6
99997.6
99997.6
99997.6
99997.6
99997.6
99997.6
99997.6
99997.6
99997.6
99997.6
99997.6
99997.6
99997.6
99997.6
99997.6
99997.6
99997.6
99997.6
99997.6
99997.6
99997.6
99997.6
99997.6
99997.6
99997.6
99997.6
99997.6
99997.6
99997.6
99997.6
99997.6
99997.6
99997.6
99997.6
99997.6
99997.6
99997.6
99997.6
99997.6
99997.6
99997.6
99997.6
99997.6
99997.6
99997.6
99997.6
99997.6
99997.6
99997.6
99997.6
99997.6
99997.6
99997.6
99997.6
99997.6
99997.6
99997.6
99997.6
99997.6
99997.6
99997.6
99997.6
99997.6
99997.6
99997.6
99997.6
99997.6
99997.6
99997.6
99997.6
99997.6
99997.6
99997.6
99997.6
99997.6
99997.6
99997.6
99997.6
99997.6
99997.6
99997.6
99997.6
99997.6
99997.6
99997.6
99997.6
99997.6
99997.6
99997.6
99997.6
99997.6
99997.6
99997.6
99997.6
99997.6
99997.6
99997.6
99997.6
99997.6
99997.6
99997.6
99997.6
99997.6
99997.6
99997.6
99997.6
99997.6
99997.6
99997.6
99997.6
99997.6
99997.6
99997.6
99997.6
99997.6
99997.6
99997.6
99997.6
99997.6
99997.6
99997.6
99997.6
99997.6
99997.6
99997.6
99997.6
99997.6
99997.6
99997.6
99997.6
99997.6
99997.6
99997.6
99997.6
99997.6
99997.6
99997.6
99997.6
99997.6
99997.6
99997.6
99997.6
99997.6
99997.6
99997.6
99997.6
99997.6
99997.6
99997.6
99997.6
99997.6
99997.6
99997.6
99997.6
99997.6
99997.6
99997.6
99997.6
99997.6
99997.6
99997.6
99997.6
99997.6
99997.6
99997.6
99997.6
99997.6
99997.6
99997.6
99997.6
99997.6
99997.6
99997.6
99997.6
99997.6
99997.6
99997.6
99997.6
99997.6
99997.6
99997.6
99997.6
99997.6
99997.6
99997.6
99997.6
99997.6
99997.6
99997.6
99997.6
99997.6
99997.6
99997.6
99997.6
99997.6
99997.6
99997.6
99997.6
99997.6
99997.6
99997.6
99997.6
99997.6
99997.6
99997.6
99997.6
99997.6
99997.6
99997.6
99997.6
99997.6
99997.6
99997.6
99997.6
99997.6
99997.6
99997.6
99997.6
99997.6
99997.6
99997.6
99997.6
99997.6
99997.6
99997.6
99997.6
99997.6
99997.6
99997.6
99997.6
99997.6
99997.6
99997.6
99997.6
99997.6
99997.6
99997.6
99997.6
99997.6
99997.6
99997.6
99997.6
99997.6
99997.6
99997.6
99997.6
99997.6
99997.6
99997.6
99997.6
99997.6
99997.6
99997.6
99997.6
99997.6
99997.6
99997.6
99997.6
99997.6
99997.6
99997.6
99997.6
99997.6
99997.6
99997.6
99997.6
99997.6
99997.6
99997.6
99997.6
99997.6
99997.6
99997.6
99997.6
99997.6
99997.6
99997.6
99997.6
99997.6
99997.6
99997.6
99997.6
99997.6
99997.6
99997.6
99997.6
99997.6
99997.6
99997.6
)
;

boundaryField
{
    wedge0
    {
        type            wedge;
    }
    wedge1
    {
        type            wedge;
    }
    wedge2
    {
        type            wedge;
    }
    wedge3
    {
        type            wedge;
    }
    outlet
    {
        type            zeroGradient;
    }
    defaultFaces
    {
        type            empty;
    }
}


// ************************************************************************* //
