/*--------------------------------*- C++ -*----------------------------------*\
| =========                 |                                                 |
| \\      /  F ield         | OpenFOAM: The Open Source CFD Toolbox           |
|  \\    /   O peration     | Version:  2312                                  |
|   \\  /    A nd           | Website:  www.openfoam.com                      |
|    \\/     M anipulation  |                                                 |
\*---------------------------------------------------------------------------*/
FoamFile
{
    version     2.0;
    format      ascii;
    arch        "LSB;label=32;scalar=64";
    class       volScalarField;
    location    "5e-05";
    object      rho;
}
// * * * * * * * * * * * * * * * * * * * * * * * * * * * * * * * * * * * * * //

dimensions      [1 -3 0 0 0 0 0];

internalField   nonuniform List<scalar> 
500
(
0.00692354
0.00692895
0.00693649
0.00694659
0.00695952
0.00697536
0.00699421
0.00701609
0.00704106
0.00706917
0.00710044
0.00713493
0.00717269
0.00721376
0.00725821
0.00730607
0.00735743
0.00741235
0.0074709
0.00753314
0.00759918
0.00766909
0.00774296
0.00782089
0.00790299
0.00798936
0.00808013
0.0081754
0.00827532
0.00838002
0.00848964
0.00860434
0.00872427
0.0088496
0.00898052
0.0091172
0.00925984
0.00940865
0.00956385
0.00972566
0.00989433
0.0100701
0.0102532
0.010444
0.0106428
0.0108497
0.0110653
0.0112897
0.0115235
0.0117668
0.0120202
0.012284
0.0125588
0.0128448
0.0131427
0.0134528
0.0137759
0.0141123
0.0144627
0.0148277
0.0152079
0.0156041
0.0160169
0.0164472
0.0168955
0.017363
0.0178502
0.0183584
0.0188882
0.0194409
0.0200174
0.020619
0.0212467
0.0219019
0.0225858
0.0232998
0.0240455
0.0248243
0.0256378
0.0264878
0.0273761
0.0283045
0.0292751
0.0302899
0.0313512
0.0324613
0.0336227
0.0348378
0.0361096
0.0374408
0.0388345
0.0402938
0.0418222
0.0434232
0.0451005
0.046858
0.0487
0.0506308
0.052655
0.0547774
0.0570032
0.0593378
0.0617868
0.0643564
0.0670526
0.0698824
0.0728525
0.0759705
0.0792441
0.0826815
0.0862914
0.0900829
0.0940655
0.0982495
0.102645
0.107265
0.112119
0.117221
0.122584
0.128221
0.134148
0.140379
0.146932
0.153824
0.161072
0.168696
0.176717
0.185155
0.194035
0.20338
0.213215
0.223568
0.234467
0.245944
0.258031
0.270762
0.284175
0.298308
0.313204
0.328907
0.345466
0.362932
0.381359
0.400807
0.421339
0.443024
0.465935
0.490152
0.51576
0.542853
0.571531
0.601904
0.63409
0.668219
0.704432
0.742884
0.783742
0.827192
0.873435
0.922696
0.975219
1.03127
1.09116
1.1552
1.22377
1.29727
1.37614
1.46089
1.55205
1.65023
1.75573
1.86832
1.98909
2.11905
2.25914
2.41021
2.573
2.74796
2.93506
3.13327
3.33978
3.54865
3.7486
3.91965
4.02867
4.02519
3.84299
3.42045
2.7572
2.00319
1.44255
1.21209
1.16668
1.16151
1.16104
1.161
1.161
1.161
1.161
1.161
1.161
1.161
1.161
1.161
1.161
1.161
1.161
1.161
1.161
1.161
1.161
1.161
1.161
1.161
1.161
1.161
1.161
1.161
1.161
1.161
1.161
1.161
1.161
1.161
1.161
1.161
1.161
1.161
1.161
1.161
1.161
1.161
1.161
1.161
1.161
1.161
1.161
1.161
1.161
1.161
1.161
1.161
1.161
1.161
1.161
1.161
1.161
1.161
1.161
1.161
1.161
1.161
1.161
1.161
1.161
1.161
1.161
1.161
1.161
1.161
1.161
1.161
1.161
1.161
1.161
1.161
1.161
1.161
1.161
1.161
1.161
1.161
1.161
1.161
1.161
1.161
1.161
1.161
1.161
1.161
1.161
1.161
1.161
1.161
1.161
1.161
1.161
1.161
1.161
1.161
1.161
1.161
1.161
1.161
1.161
1.161
1.161
1.161
1.161
1.161
1.161
1.161
1.161
1.161
1.161
1.161
1.161
1.161
1.161
1.161
1.161
1.161
1.161
1.161
1.161
1.161
1.161
1.161
1.161
1.161
1.161
1.161
1.161
1.161
1.161
1.161
1.161
1.161
1.161
1.161
1.161
1.161
1.161
1.161
1.161
1.161
1.161
1.161
1.161
1.161
1.161
1.161
1.161
1.161
1.161
1.161
1.161
1.161
1.161
1.161
1.161
1.161
1.161
1.161
1.161
1.161
1.161
1.161
1.161
1.161
1.161
1.161
1.161
1.161
1.161
1.161
1.161
1.161
1.161
1.161
1.161
1.161
1.161
1.161
1.161
1.161
1.161
1.161
1.161
1.161
1.161
1.161
1.161
1.161
1.161
1.161
1.161
1.161
1.161
1.161
1.161
1.161
1.161
1.161
1.161
1.161
1.161
1.161
1.161
1.161
1.161
1.161
1.161
1.161
1.161
1.161
1.161
1.161
1.161
1.161
1.161
1.161
1.161
1.161
1.161
1.161
1.161
1.161
1.161
1.161
1.161
1.161
1.161
1.161
1.161
1.161
1.161
1.161
1.161
1.161
1.161
1.161
1.161
1.161
1.161
1.161
1.161
1.161
1.161
1.161
1.161
1.161
1.161
1.161
1.161
1.161
1.161
1.161
1.161
1.161
1.161
1.161
1.161
1.161
1.161
1.161
1.161
1.161
1.161
1.161
1.161
1.161
1.161
1.161
1.161
1.161
1.161
1.161
1.161
1.161
1.161
1.161
1.161
1.161
1.161
1.161
1.161
1.161
1.161
1.161
1.161
1.161
1.161
1.161
1.161
1.161
1.161
1.161
1.161
1.161
1.161
1.161
1.161
1.161
1.161
1.161
1.161
1.161
1.161
1.161
)
;

boundaryField
{
    wedge0
    {
        type            wedge;
    }
    wedge1
    {
        type            wedge;
    }
    wedge2
    {
        type            wedge;
    }
    wedge3
    {
        type            wedge;
    }
    outlet
    {
        type            zeroGradient;
    }
    defaultFaces
    {
        type            empty;
    }
}


// ************************************************************************* //
