/*--------------------------------*- C++ -*----------------------------------*\
| =========                 |                                                 |
| \\      /  F ield         | OpenFOAM: The Open Source CFD Toolbox           |
|  \\    /   O peration     | Version:  2312                                  |
|   \\  /    A nd           | Website:  www.openfoam.com                      |
|    \\/     M anipulation  |                                                 |
\*---------------------------------------------------------------------------*/
FoamFile
{
    version     2.0;
    format      ascii;
    arch        "LSB;label=32;scalar=64";
    class       volScalarField;
    location    "5e-05";
    object      T;
}
// * * * * * * * * * * * * * * * * * * * * * * * * * * * * * * * * * * * * * //

dimensions      [0 0 0 1 0 0 0];

internalField   nonuniform List<scalar> 
500
(
385048
384933
384629
384147
383493
382669
381679
380524
379206
377727
376090
374297
372350
370252
368006
365616
363083
360413
357607
354671
351607
348420
345114
341693
338161
334523
330783
326946
323016
318998
314896
310717
306463
302141
297755
293309
288809
284260
279666
275032
270362
265662
260936
256189
251425
246649
241864
237076
232288
227505
222730
217967
213221
208494
203790
199114
194467
189853
185276
180738
176242
171791
167386
163032
158729
154480
150288
146153
142078
138064
134112
130225
126404
122649
118961
115342
111792
108312
104902
101563
98295.2
95098.9
91974.2
88921.1
85939.6
83029.6
80190.9
77423.1
74725.9
72098.9
69541.5
67053.2
64633.4
62281.2
59996.1
57777.1
55623.4
53534
51508.2
49544.8
47642.8
45801.2
44018.9
42294.8
40627.7
39016.5
37460
35957
34506.3
33106.8
31757
30456
29202.3
27994.8
26832.3
25713.5
24637.2
23602.2
22607.2
21651.1
20732.7
19850.8
19004.3
18192
17412.8
16665.6
15949.3
15262.8
14605.1
13975.2
13372
12794.6
12242
11713.3
11207.6
10723.9
10261.5
9819.48
9397.01
8993.32
8607.64
8239.24
7887.4
7551.42
7230.64
6924.4
6632.09
6353.11
6086.87
5832.82
5590.43
5359.18
5138.58
4928.15
4727.44
4536.01
4353.45
4179.36
4013.35
3855.06
3704.14
3560.26
3423.09
3292.34
3167.71
3048.92
2935.72
2827.85
2725.07
2627.14
2534.25
2447.18
2365.05
2287.17
2213.13
2142.58
2075.24
2010.79
1948.86
1888.96
1830.39
1772.15
1712.68
1649.5
1578.58
1493.12
1381.38
1223.25
991.777
689.623
416.506
313.277
300.902
300.063
300.005
300
300
300
300
300
300
300
300
300
300
300
300
300
300
300
300
300
300
300
300
300
300
300
300
300
300
300
300
300
300
300
300
300
300
300
300
300
300
300
300
300
300
300
300
300
300
300
300
300
300
300
300
300
300
300
300
300
300
300
300
300
300
300
300
300
300
300
300
300
300
300
300
300
300
300
300
300
300
300
300
300
300
300
300
300
300
300
300
300
300
300
300
300
300
300
300
300
300
300
300
300
300
300
300
300
300
300
300
300
300
300
300
300
300
300
300
300
300
300
300
300
300
300
300
300
300
300
300
300
300
300
300
300
300
300
300
300
300
300
300
300
300
300
300
300
300
300
300
300
300
300
300
300
300
300
300
300
300
300
300
300
300
300
300
300
300
300
300
300
300
300
300
300
300
300
300
300
300
300
300
300
300
300
300
300
300
300
300
300
300
300
300
300
300
300
300
300
300
300
300
300
300
300
300
300
300
300
300
300
300
300
300
300
300
300
300
300
300
300
300
300
300
300
300
300
300
300
300
300
300
300
300
300
300
300
300
300
300
300
300
300
300
300
300
300
300
300
300
300
300
300
300
300
300
300
300
300
300
300
300
300
300
300
300
300
300
300
300
300
300
300
300
300
300
300
300
300
300
300
300
300
300
300
300
300
300
300
300
300
300
300
300
300
300
300
300
300
300
300
300
300
300
300
300
300
)
;

boundaryField
{
    wedge0
    {
        type            wedge;
    }
    wedge1
    {
        type            wedge;
    }
    wedge2
    {
        type            wedge;
    }
    wedge3
    {
        type            wedge;
    }
    outlet
    {
        type            zeroGradient;
    }
    defaultFaces
    {
        type            empty;
    }
}


// ************************************************************************* //
