/*--------------------------------*- C++ -*----------------------------------*\
| =========                 |                                                 |
| \\      /  F ield         | OpenFOAM: The Open Source CFD Toolbox           |
|  \\    /   O peration     | Version:  2312                                  |
|   \\  /    A nd           | Website:  www.openfoam.com                      |
|    \\/     M anipulation  |                                                 |
\*---------------------------------------------------------------------------*/
FoamFile
{
    version     2.0;
    format      ascii;
    arch        "LSB;label=32;scalar=64";
    class       volScalarField;
    location    "5e-05";
    object      thermo:e;
}
// * * * * * * * * * * * * * * * * * * * * * * * * * * * * * * * * * * * * * //

dimensions      [0 2 -2 0 0 0 0];

internalField   nonuniform List<scalar> 
500
(
2.76349e+08
2.76266e+08
2.76048e+08
2.75702e+08
2.75233e+08
2.74642e+08
2.73931e+08
2.73102e+08
2.72156e+08
2.71095e+08
2.6992e+08
2.68633e+08
2.67235e+08
2.6573e+08
2.64118e+08
2.62402e+08
2.60585e+08
2.58668e+08
2.56655e+08
2.54547e+08
2.52349e+08
2.50061e+08
2.47688e+08
2.45233e+08
2.42698e+08
2.40087e+08
2.37403e+08
2.34649e+08
2.31828e+08
2.28945e+08
2.26001e+08
2.23001e+08
2.19949e+08
2.16847e+08
2.13699e+08
2.10508e+08
2.07278e+08
2.04013e+08
2.00716e+08
1.9739e+08
1.94039e+08
1.90666e+08
1.87274e+08
1.83867e+08
1.80448e+08
1.7702e+08
1.73586e+08
1.70149e+08
1.66713e+08
1.6328e+08
1.59853e+08
1.56435e+08
1.53028e+08
1.49636e+08
1.4626e+08
1.42904e+08
1.39569e+08
1.36258e+08
1.32973e+08
1.29716e+08
1.26489e+08
1.23294e+08
1.20133e+08
1.17008e+08
1.1392e+08
1.10871e+08
1.07861e+08
1.04894e+08
1.01969e+08
9.90882e+07
9.62525e+07
9.34627e+07
9.07199e+07
8.80249e+07
8.53783e+07
8.27808e+07
8.02329e+07
7.77352e+07
7.5288e+07
7.28917e+07
7.05464e+07
6.82525e+07
6.60099e+07
6.38187e+07
6.16789e+07
5.95903e+07
5.7553e+07
5.55666e+07
5.36308e+07
5.17454e+07
4.991e+07
4.81241e+07
4.63874e+07
4.46992e+07
4.30592e+07
4.14666e+07
3.99209e+07
3.84214e+07
3.69674e+07
3.55583e+07
3.41932e+07
3.28715e+07
3.15924e+07
3.0355e+07
2.91585e+07
2.80021e+07
2.6885e+07
2.58063e+07
2.47652e+07
2.37607e+07
2.2792e+07
2.18583e+07
2.09585e+07
2.00919e+07
1.92575e+07
1.84546e+07
1.76821e+07
1.69393e+07
1.62252e+07
1.5539e+07
1.48799e+07
1.42469e+07
1.36394e+07
1.30564e+07
1.24972e+07
1.19609e+07
1.14468e+07
1.09541e+07
1.04821e+07
1.003e+07
9.5971e+06
9.1827e+06
8.7861e+06
8.40665e+06
8.04369e+06
7.69658e+06
7.36469e+06
7.04744e+06
6.74423e+06
6.45451e+06
6.17771e+06
5.9133e+06
5.66079e+06
5.41965e+06
5.18943e+06
4.96964e+06
4.75985e+06
4.55962e+06
4.36855e+06
4.18622e+06
4.01225e+06
3.84628e+06
3.68796e+06
3.53693e+06
3.39288e+06
3.2555e+06
3.12447e+06
2.99953e+06
2.88038e+06
2.76678e+06
2.65846e+06
2.5552e+06
2.45675e+06
2.36291e+06
2.27346e+06
2.18821e+06
2.10697e+06
2.02955e+06
1.95578e+06
1.88549e+06
1.81883e+06
1.75634e+06
1.6974e+06
1.6415e+06
1.58836e+06
1.53773e+06
1.4894e+06
1.44315e+06
1.3987e+06
1.35571e+06
1.31367e+06
1.27187e+06
1.22919e+06
1.18384e+06
1.13294e+06
1.07161e+06
991418
877926
711799
494943
298926
224839
215957
215355
215313
215310
215310
215310
215310
215310
215310
215310
215310
215310
215310
215310
215310
215310
215310
215310
215310
215310
215310
215310
215310
215310
215310
215310
215310
215310
215310
215310
215310
215310
215310
215310
215310
215310
215310
215310
215310
215310
215310
215310
215310
215310
215310
215310
215310
215310
215310
215310
215310
215310
215310
215310
215310
215310
215310
215310
215310
215310
215310
215310
215310
215310
215310
215310
215310
215310
215310
215310
215310
215310
215310
215310
215310
215310
215310
215310
215310
215310
215310
215310
215310
215310
215310
215310
215310
215310
215310
215310
215310
215310
215310
215310
215310
215310
215310
215310
215310
215310
215310
215310
215310
215310
215310
215310
215310
215310
215310
215310
215310
215310
215310
215310
215310
215310
215310
215310
215310
215310
215310
215310
215310
215310
215310
215310
215310
215310
215310
215310
215310
215310
215310
215310
215310
215310
215310
215310
215310
215310
215310
215310
215310
215310
215310
215310
215310
215310
215310
215310
215310
215310
215310
215310
215310
215310
215310
215310
215310
215310
215310
215310
215310
215310
215310
215310
215310
215310
215310
215310
215310
215310
215310
215310
215310
215310
215310
215310
215310
215310
215310
215310
215310
215310
215310
215310
215310
215310
215310
215310
215310
215310
215310
215310
215310
215310
215310
215310
215310
215310
215310
215310
215310
215310
215310
215310
215310
215310
215310
215310
215310
215310
215310
215310
215310
215310
215310
215310
215310
215310
215310
215310
215310
215310
215310
215310
215310
215310
215310
215310
215310
215310
215310
215310
215310
215310
215310
215310
215310
215310
215310
215310
215310
215310
215310
215310
215310
215310
215310
215310
215310
215310
215310
215310
215310
215310
215310
215310
215310
215310
215310
215310
215310
215310
215310
215310
215310
215310
215310
215310
215310
215310
215310
215310
215310
215310
215310
215310
215310
215310
215310
215310
215310
215310
215310
215310
215310
215310
215310
215310
215310
215310
215310
215310
215310
215310
215310
215310
215310
215310
215310
215310
215310
215310
215310
215310
215310
215310
)
;

boundaryField
{
    wedge0
    {
        type            wedge;
    }
    wedge1
    {
        type            wedge;
    }
    wedge2
    {
        type            wedge;
    }
    wedge3
    {
        type            wedge;
    }
    outlet
    {
        type            zeroGradient;
    }
    defaultFaces
    {
        type            empty;
    }
}


// ************************************************************************* //
