/*--------------------------------*- C++ -*----------------------------------*\
| =========                 |                                                 |
| \\      /  F ield         | OpenFOAM: The Open Source CFD Toolbox           |
|  \\    /   O peration     | Version:  2312                                  |
|   \\  /    A nd           | Website:  www.openfoam.com                      |
|    \\/     M anipulation  |                                                 |
\*---------------------------------------------------------------------------*/
FoamFile
{
    version     2.0;
    format      ascii;
    arch        "LSB;label=32;scalar=64";
    class       volVectorField;
    location    "5e-05";
    object      U;
}
// * * * * * * * * * * * * * * * * * * * * * * * * * * * * * * * * * * * * * //

dimensions      [0 1 -1 0 0 0 0];

internalField   nonuniform List<vector> 
500
(
(5.32571 -3.70151e-10 3.72361e-10)
(9.58976 -3.74582e-10 3.76519e-10)
(14.3462 -3.92554e-10 3.94678e-10)
(19.3984 -3.86287e-10 3.89255e-10)
(24.5687 -3.592e-10 3.61852e-10)
(29.7963 -3.58112e-10 3.60529e-10)
(35.0557 -3.52376e-10 3.52634e-10)
(40.3346 -3.43356e-10 3.43509e-10)
(45.6263 -3.24566e-10 3.24666e-10)
(50.927 -3.00321e-10 3.00354e-10)
(56.2342 -2.76078e-10 2.76082e-10)
(61.5463 -2.51954e-10 2.51972e-10)
(66.8621 -2.28665e-10 2.28669e-10)
(72.1809 -2.06037e-10 2.0601e-10)
(77.5021 -1.84002e-10 1.83978e-10)
(82.8254 -1.62721e-10 1.62722e-10)
(88.1504 -1.43877e-10 1.4389e-10)
(93.4769 -1.32657e-10 1.32669e-10)
(98.8046 -1.2122e-10 1.21234e-10)
(104.133 -1.15318e-10 1.15331e-10)
(109.463 -1.11335e-10 1.11361e-10)
(114.794 -1.10143e-10 1.10145e-10)
(120.126 -1.10642e-10 1.10661e-10)
(125.458 -1.11464e-10 1.11474e-10)
(130.791 -1.10615e-10 1.10642e-10)
(136.125 -1.08411e-10 1.08413e-10)
(141.46 -1.07988e-10 1.07986e-10)
(146.795 -1.06833e-10 1.06823e-10)
(152.131 -1.02197e-10 1.02198e-10)
(157.467 -9.80353e-11 9.80361e-11)
(162.805 -9.48829e-11 9.48833e-11)
(168.142 -9.10803e-11 9.10805e-11)
(173.481 -8.48682e-11 8.48683e-11)
(178.819 -7.9603e-11 7.9603e-11)
(184.159 -7.55666e-11 7.55666e-11)
(189.499 -7.23668e-11 7.23668e-11)
(194.84 -6.87894e-11 6.87894e-11)
(200.181 -6.61709e-11 6.61709e-11)
(205.523 -6.325e-11 6.325e-11)
(210.865 -6.10277e-11 6.10277e-11)
(216.209 -5.78878e-11 5.78878e-11)
(221.553 -5.39371e-11 5.39371e-11)
(226.897 -5.00625e-11 5.00625e-11)
(232.242 -4.58577e-11 4.58577e-11)
(237.589 -4.27826e-11 4.27826e-11)
(242.935 -3.93339e-11 3.93339e-11)
(248.283 -3.52587e-11 3.52587e-11)
(253.631 -3.06626e-11 3.06626e-11)
(258.98 -2.55131e-11 2.55131e-11)
(264.33 -2.12079e-11 2.12079e-11)
(269.681 -1.73111e-11 1.73111e-11)
(275.033 -1.41433e-11 1.41433e-11)
(280.386 -1.164e-11 1.164e-11)
(285.739 -8.64277e-12 8.64277e-12)
(291.094 -6.24672e-12 6.24672e-12)
(296.45 -4.39248e-12 4.39248e-12)
(301.806 -2.09086e-12 2.09086e-12)
(307.164 2.93022e-13 -2.93022e-13)
(312.523 2.23702e-12 -2.23702e-12)
(317.884 3.76985e-12 -3.76985e-12)
(323.245 4.10034e-12 -4.10034e-12)
(328.608 4.06862e-12 -4.06862e-12)
(333.972 4.04777e-12 -4.04777e-12)
(339.338 3.94487e-12 -3.94487e-12)
(344.705 3.88274e-12 -3.88274e-12)
(350.074 3.7478e-12 -3.7478e-12)
(355.444 3.76845e-12 -3.76845e-12)
(360.816 3.86718e-12 -3.86718e-12)
(366.19 3.66021e-12 -3.66021e-12)
(371.565 3.6118e-12 -3.6118e-12)
(376.942 3.55436e-12 -3.55436e-12)
(382.322 3.5069e-12 -3.5069e-12)
(387.703 3.37635e-12 -3.37635e-12)
(393.087 3.47107e-12 -3.47107e-12)
(398.473 3.37022e-12 -3.37022e-12)
(403.861 3.32886e-12 -3.32886e-12)
(409.251 2.77485e-12 -2.77248e-12)
(414.645 1.82296e-12 -1.82073e-12)
(420.041 1.18098e-12 -1.1793e-12)
(425.439 7.0351e-13 -7.02227e-13)
(430.841 5.49595e-13 -5.48852e-13)
(436.246 7.24707e-13 -7.23076e-13)
(441.654 9.1534e-13 -9.05348e-13)
(447.065 8.15932e-13 -7.95405e-13)
(452.48 4.20268e-13 -3.88192e-13)
(457.899 -2.00214e-13 2.16947e-13)
(463.321 -5.99756e-13 6.00359e-13)
(468.748 -8.01667e-13 8.02271e-13)
(474.179 -7.74896e-13 7.75377e-13)
(479.614 -7.05855e-13 7.06362e-13)
(485.054 -7.61312e-13 7.50984e-13)
(490.499 -6.02648e-13 5.80153e-13)
(495.949 -4.80016e-13 4.95557e-13)
(501.405 -5.36732e-13 5.49936e-13)
(506.866 -4.04451e-13 4.14816e-13)
(512.334 -3.73453e-13 3.663e-13)
(517.807 -4.31878e-13 4.26772e-13)
(523.288 -3.23034e-13 3.22499e-13)
(528.775 -2.97866e-13 2.98266e-13)
(534.27 -1.64601e-13 1.65443e-13)
(539.772 -1.73567e-13 1.74109e-13)
(545.283 -6.35538e-14 7.9428e-14)
(550.802 0 2.7717e-15)
(556.33 0 2.96778e-14)
(561.868 1.7773e-14 -7.81411e-14)
(567.416 1.2907e-13 -1.79723e-13)
(572.974 1.35998e-13 -1.75743e-13)
(578.543 2.75715e-13 -3.02394e-13)
(584.124 3.34067e-13 -3.45337e-13)
(589.718 3.04615e-13 -3.14927e-13)
(595.324 3.89382e-13 -3.98999e-13)
(600.944 6.18291e-13 -6.2689e-13)
(606.579 6.14153e-13 -6.21519e-13)
(612.229 7.29126e-13 -7.34785e-13)
(617.894 1.0007e-12 -1.0045e-12)
(623.577 1.1035e-12 -1.10501e-12)
(629.278 9.96921e-13 -9.94617e-13)
(634.998 8.74272e-13 -8.72579e-13)
(640.738 6.45256e-13 -6.44151e-13)
(646.499 4.28766e-13 -4.28795e-13)
(652.282 4.10304e-13 -4.10197e-13)
(658.088 4.77867e-13 -4.77879e-13)
(663.92 3.65908e-13 -3.65946e-13)
(669.778 2.88199e-13 -2.88274e-13)
(675.663 2.55059e-13 -2.5502e-13)
(681.578 2.76633e-13 -2.76579e-13)
(687.524 2.54807e-13 -2.54799e-13)
(693.502 2.53169e-13 -2.53119e-13)
(699.515 2.53173e-13 -2.53204e-13)
(705.565 2.33358e-13 -2.30574e-13)
(711.653 1.53437e-13 -1.50985e-13)
(717.782 8.21231e-14 -8.01598e-14)
(723.954 1.75102e-14 -1.62226e-14)
(730.172 -4.32802e-14 4.32802e-14)
(736.437 -1.52494e-13 1.52494e-13)
(742.754 -2.07433e-13 2.07433e-13)
(749.125 -1.63493e-13 1.63493e-13)
(755.552 -1.94201e-13 1.94201e-13)
(762.039 -1.72603e-13 1.72603e-13)
(768.59 -1.13349e-13 1.13349e-13)
(775.208 -6.44372e-14 6.44372e-14)
(781.896 -5.56885e-14 5.56885e-14)
(788.66 -1.05701e-13 1.05701e-13)
(795.502 -1.25297e-13 1.25297e-13)
(802.428 -9.8397e-14 9.8397e-14)
(809.441 -1.11843e-13 1.11843e-13)
(816.548 -7.53171e-14 7.53171e-14)
(823.753 -4.07008e-14 4.07008e-14)
(831.061 -7.85147e-15 7.85147e-15)
(838.478 5.27423e-14 -5.27423e-14)
(846.011 5.95484e-14 -5.95484e-14)
(853.665 1.03622e-14 -1.03622e-14)
(861.447 -1.50854e-15 1.50854e-15)
(869.363 3.65973e-14 -3.65973e-14)
(877.422 -8.8252e-15 8.8252e-15)
(885.631 0 0)
(893.997 -1.50714e-15 1.51975e-15)
(902.529 -4.08708e-14 4.0865e-14)
(911.235 -2.39357e-15 2.40511e-15)
(920.124 -4.80103e-14 4.81305e-14)
(929.206 -8.31205e-14 8.32269e-14)
(938.489 -7.04745e-14 7.05549e-14)
(947.983 -3.62178e-14 3.63042e-14)
(957.7 -8.86812e-14 8.87628e-14)
(967.647 -8.70766e-14 8.71364e-14)
(977.837 -7.08443e-14 7.08834e-14)
(988.278 -5.64258e-14 5.64586e-14)
(998.978 -2.68964e-14 2.69233e-14)
(1009.95 -2.1788e-14 2.18318e-14)
(1021.19 -1.2795e-14 1.2837e-14)
(1032.72 -5.04746e-15 5.08218e-15)
(1044.57 -1.81463e-14 1.81942e-14)
(1056.69 -8.43195e-15 8.43321e-15)
(1069.06 -8.13193e-15 8.07529e-15)
(1081.64 -1.71861e-14 1.71403e-14)
(1094.36 -2.46602e-14 2.46186e-14)
(1107.13 -1.7927e-14 1.78848e-14)
(1119.74 -1.29248e-14 1.29148e-14)
(1131.92 -1.86917e-14 1.86876e-14)
(1143.19 -1.08615e-14 1.08585e-14)
(1152.79 -4.20488e-15 4.20206e-15)
(1159.5 9.93776e-16 -9.97884e-16)
(1161.34 2.56234e-16 -2.56877e-16)
(1155.16 0 0)
(1135.83 0 0)
(1095.11 0 0)
(1019.83 0 0)
(890.04 0 0)
(682.52 0 0)
(401.518 0 0)
(137.916 2.50026e-15 -2.50026e-15)
(21.3205 0 0)
(1.96031 0 0)
(0.161566 -2.01542e-15 2.01542e-15)
(0.0131228 1.9844e-15 -1.9844e-15)
(0.00105889 0 0)
(8.49365e-05 -2.92539e-15 2.92539e-15)
(6.77318e-06 0 0)
(5.37e-07 0 0)
(4.23265e-08 5.68447e-15 -5.68171e-15)
(3.31006e-09 5.66093e-15 -5.65318e-15)
(2.60477e-10 3.30793e-17 -3.02454e-17)
(2.26377e-11 0 0)
(4.53329e-12 -7.55771e-16 7.55771e-16)
(-3.55786e-12 -6.93414e-15 6.93414e-15)
(-1.19462e-11 -7.67165e-15 7.67165e-15)
(-1.09585e-11 -3.07389e-15 3.07389e-15)
(-7.44822e-12 -3.7977e-15 3.7977e-15)
(6.44655e-12 7.12598e-16 -7.12598e-16)
(1.63058e-11 0 0)
(1.82563e-11 0 0)
(1.67831e-11 -2.44761e-15 2.44761e-15)
(1.20484e-11 -9.89927e-15 9.89927e-15)
(2.47402e-12 -1.2301e-14 1.2301e-14)
(-4.35937e-13 -1.96129e-14 1.96129e-14)
(8.88679e-13 -2.19668e-14 2.19668e-14)
(-8.22357e-12 -9.76261e-15 9.76261e-15)
(-9.26202e-12 -2.46997e-15 2.46997e-15)
(-5.15152e-12 0 0)
(-1.41913e-11 0 0)
(-1.65335e-11 0 0)
(-5.89048e-15 0 0)
(1.58531e-11 0 0)
(2.7727e-11 2.08928e-15 -2.08928e-15)
(1.7263e-11 8.66289e-15 -8.66289e-15)
(-1.06862e-12 1.78616e-15 -1.78616e-15)
(4.31147e-12 -2.83823e-15 2.83823e-15)
(9.47784e-12 -1.18047e-14 1.18047e-14)
(2.94284e-12 -7.65057e-15 7.65057e-15)
(-7.56702e-12 -7.84093e-15 7.84093e-15)
(-1.67343e-11 -1.23022e-14 1.23022e-14)
(-1.67646e-11 -4.01631e-15 4.01631e-15)
(-1.07358e-11 0 0)
(-1.03813e-11 0 0)
(-3.8807e-12 0 0)
(9.809e-12 0 0)
(1.47754e-11 0 0)
(1.10426e-12 0 0)
(-1.42325e-11 0 0)
(-1.3662e-11 -2.85142e-15 2.85142e-15)
(-8.20773e-12 -9.60178e-15 9.60178e-15)
(-3.65519e-12 -4.62224e-15 4.62224e-15)
(8.30351e-13 1.73591e-15 -1.73591e-15)
(9.84443e-12 1.95268e-14 -1.95268e-14)
(9.99083e-12 2.57844e-14 -2.57844e-14)
(4.4948e-13 2.33058e-14 -2.33058e-14)
(-3.17773e-12 9.64142e-15 -9.64142e-15)
(8.10682e-12 7.20157e-15 -7.20157e-15)
(1.81539e-11 8.45584e-15 -8.45584e-15)
(1.09932e-11 -1.23718e-15 1.23718e-15)
(-1.42048e-12 -5.45988e-18 5.45988e-18)
(-1.33235e-11 0 0)
(-1.60859e-11 0 0)
(-1.29741e-11 0 0)
(-7.28118e-12 0 0)
(1.75699e-12 0 0)
(-8.21906e-13 -1.70518e-15 1.70518e-15)
(-4.3722e-12 -6.81909e-15 6.81909e-15)
(-4.0664e-12 -1.70579e-15 1.70579e-15)
(-8.50434e-12 0 0)
(-1.38101e-12 0 0)
(1.1413e-11 0 0)
(7.40915e-12 1.59264e-15 -1.59264e-15)
(-4.09101e-12 6.44027e-15 -6.44027e-15)
(-5.97704e-12 1.44931e-14 -1.44931e-14)
(1.34596e-12 1.2831e-14 -1.2831e-14)
(-1.60376e-12 1.43734e-14 -1.43734e-14)
(-1.33856e-11 6.39223e-15 -6.39223e-15)
(-1.19156e-11 1.61693e-15 -1.61693e-15)
(-5.61564e-12 0 0)
(-3.81749e-12 0 0)
(-2.09586e-13 0 0)
(4.96551e-12 0 0)
(5.88796e-12 0 0)
(8.99453e-12 -1.48964e-15 1.48964e-15)
(7.40588e-12 -5.95595e-15 5.95595e-15)
(1.27487e-11 -1.48984e-15 1.48984e-15)
(2.98361e-11 0 0)
(2.58266e-11 0 0)
(2.65618e-12 0 0)
(-2.25328e-12 0 0)
(2.7521e-12 9.41209e-16 -9.41209e-16)
(2.66994e-13 4.71675e-15 -4.71675e-15)
(-6.1287e-12 0 0)
(-9.85673e-12 -4.65817e-15 4.65817e-15)
(-9.20694e-12 -9.34518e-16 9.34518e-16)
(-9.06184e-12 0 0)
(-2.00815e-12 0 0)
(5.83715e-12 -2.7161e-15 2.7161e-15)
(8.66962e-12 0 0)
(5.57328e-12 0 0)
(4.8621e-14 1.78047e-15 -1.78047e-15)
(-6.6464e-12 -1.75555e-15 1.75555e-15)
(-1.18519e-11 0 0)
(1.01272e-12 0 0)
(9.0053e-12 1.72927e-15 -1.72927e-15)
(5.44115e-12 -1.70964e-15 1.70964e-15)
(7.06468e-12 0 0)
(5.94618e-12 0 0)
(1.78706e-12 0 0)
(-1.45621e-12 -2.50422e-15 2.50422e-15)
(1.6536e-12 9.26959e-19 -9.26959e-19)
(6.39591e-12 -2.47054e-15 2.47054e-15)
(6.76423e-12 0 0)
(-2.47994e-14 2.43843e-15 -2.43843e-15)
(-4.5052e-12 0 0)
(-3.99483e-12 0 0)
(-6.77233e-13 0 0)
(2.14264e-12 -4.75061e-15 4.75061e-15)
(-7.1965e-12 -4.73394e-15 4.73394e-15)
(-1.2815e-11 -1.60424e-17 1.60424e-17)
(-2.84207e-11 0 0)
(-2.64467e-11 0 0)
(-9.97299e-13 0 0)
(6.24241e-12 2.28401e-15 -2.28401e-15)
(7.73912e-12 0 0)
(7.54156e-12 0 0)
(1.91115e-11 -3.84066e-16 3.84066e-16)
(2.41456e-11 -5.23578e-15 5.23578e-15)
(1.3615e-11 -1.4499e-14 1.4499e-14)
(-5.0588e-12 -1.92887e-14 1.92887e-14)
(-9.82784e-12 -1.966e-14 1.966e-14)
(6.05538e-12 -1.5671e-14 1.5671e-14)
(1.2003e-11 -1.60377e-14 1.60377e-14)
(7.68249e-12 -1.20954e-14 1.20954e-14)
(4.36513e-12 -3.89607e-15 3.89607e-15)
(6.28088e-13 0 0)
(-3.0448e-12 0 0)
(-1.23056e-11 2.09503e-15 -2.09503e-15)
(-1.42999e-11 0 0)
(1.66755e-12 0 0)
(1.44926e-11 0 0)
(1.66215e-11 0 0)
(1.70876e-12 -4.06384e-15 4.06384e-15)
(-9.95711e-12 -4.0535e-15 4.0535e-15)
(-1.11943e-11 -1.27789e-17 1.27789e-17)
(-9.8203e-12 0 0)
(-1.30941e-11 0 0)
(-1.35962e-11 0 0)
(-7.96641e-12 0 0)
(-1.07811e-11 0 0)
(-5.46344e-12 -1.93838e-15 1.93838e-15)
(-5.31868e-14 0 0)
(-3.54875e-12 0 0)
(-5.26517e-12 1.90617e-15 -1.90617e-15)
(3.08535e-12 2.80426e-18 -2.80426e-18)
(1.30798e-11 1.88446e-15 -1.88446e-15)
(8.93453e-12 0 0)
(-1.77121e-12 -3.09524e-15 3.09524e-15)
(-6.32864e-12 -2.46339e-15 2.46339e-15)
(-7.51845e-13 -5.52328e-15 5.52328e-15)
(-5.99162e-12 -4.89515e-15 4.89515e-15)
(-3.80066e-12 -6.20954e-16 6.20954e-16)
(7.97786e-12 0 0)
(7.94779e-12 0 0)
(6.51454e-12 1.78761e-15 -1.78761e-15)
(6.366e-12 0 0)
(1.01042e-12 -4.2413e-15 4.2413e-15)
(-4.60425e-12 -4.93159e-15 4.93159e-15)
(-4.46659e-12 -2.10969e-15 2.10969e-15)
(-1.06547e-11 -2.79133e-15 2.79133e-15)
(-1.56896e-11 0 0)
(-7.27396e-12 0 0)
(8.96824e-12 -1.7116e-15 1.7116e-15)
(9.94051e-12 4.25943e-19 -4.25943e-19)
(5.28348e-12 -1.69079e-15 1.69079e-15)
(3.86667e-12 0 0)
(-4.85557e-12 1.67297e-15 -1.67297e-15)
(-1.00084e-11 0 0)
(-3.88933e-12 0 0)
(-2.11196e-12 -7.98613e-16 7.98613e-16)
(-4.26271e-12 -4.8766e-15 4.8766e-15)
(5.65686e-13 -5.66569e-15 5.66569e-15)
(3.20055e-12 -9.69885e-15 9.69885e-15)
(5.02698e-12 -1.04784e-14 1.04784e-14)
(7.76319e-13 -8.03867e-15 8.03867e-15)
(-7.58861e-12 -2.4142e-15 2.4142e-15)
(-3.88418e-12 0 0)
(-2.48976e-12 0 0)
(-4.94353e-12 1.56901e-15 -1.56901e-15)
(-8.26618e-12 5.84293e-19 -5.84293e-19)
(-1.15689e-11 1.55251e-15 -1.55251e-15)
(-5.48349e-12 0 0)
(-2.45773e-12 0 0)
(5.84867e-13 -1.52902e-15 1.52902e-15)
(6.81647e-13 0 0)
(-3.59483e-13 0 0)
(4.0259e-12 0 0)
(6.19604e-12 2.99647e-15 -2.99647e-15)
(-1.51989e-12 2.98893e-15 -2.98893e-15)
(-3.79766e-12 8.73602e-18 -8.73602e-18)
(5.88797e-12 0 0)
(2.19094e-14 0 0)
(-8.61143e-12 1.46008e-15 -1.46008e-15)
(-8.87745e-12 0 0)
(-6.62705e-12 0 0)
(3.45265e-13 0 0)
(5.63849e-12 0 0)
(4.47126e-12 0 0)
(1.0399e-12 0 0)
(6.80044e-13 0 0)
(4.01131e-12 0 0)
(9.61794e-12 5.95244e-16 -5.95244e-16)
(9.26835e-12 3.972e-15 -3.972e-15)
(4.15641e-12 1.00998e-14 -1.00998e-14)
(6.3017e-12 1.34426e-14 -1.34426e-14)
(9.00687e-12 1.40251e-14 -1.40251e-14)
(7.17612e-12 6.41726e-15 -6.41726e-15)
(7.83551e-13 1.56197e-15 -1.56197e-15)
(-5.36824e-15 -5.68877e-16 5.68877e-16)
(2.99417e-12 0 0)
(-3.929e-12 0 0)
(-7.57099e-12 0 0)
(-6.62752e-12 0 0)
(-9.36107e-13 0 0)
(-1.43091e-13 0 0)
(-3.3846e-12 0 0)
(-5.05178e-12 0 0)
(-8.78866e-13 -8.6311e-16 8.6311e-16)
(1.72148e-11 8.53978e-16 -8.53978e-16)
(2.28479e-11 0 0)
(1.55843e-11 0 0)
(8.73855e-12 -1.26736e-15 1.26736e-15)
(5.60054e-12 -1.79693e-18 1.79693e-18)
(6.17261e-12 -1.25619e-15 1.25619e-15)
(4.24442e-13 -1.53986e-18 1.53986e-18)
(-1.50797e-12 -1.24353e-15 1.24353e-15)
(1.24871e-12 0 0)
(-1.10017e-12 -8.22215e-16 8.22215e-16)
(4.88309e-12 8.15796e-16 -8.15796e-16)
(5.08109e-12 0 0)
(-1.75202e-11 1.21447e-15 -1.21447e-15)
(-2.30468e-11 1.02387e-19 -1.02387e-19)
(-1.38688e-11 1.20345e-15 -1.20345e-15)
(-6.33965e-12 0 0)
(4.86339e-12 7.9611e-16 -7.9611e-16)
(1.17084e-11 -7.89788e-16 7.89788e-16)
(4.86841e-12 0 0)
(-4.40695e-12 -9.22231e-16 9.22231e-16)
(-3.53296e-12 -4.1856e-15 4.1856e-15)
(-1.23168e-11 -9.76754e-15 9.76754e-15)
(-1.54714e-11 -8.35136e-15 8.35136e-15)
(8.46088e-12 0 0)
(9.99706e-12 8.27226e-15 -8.27226e-15)
(-2.31796e-12 9.62676e-15 -9.62676e-15)
(-4.01821e-12 4.1287e-15 -4.1287e-15)
(-1.13994e-11 9.26006e-16 -9.26006e-16)
(2.53372e-12 0 0)
(2.58739e-11 9.53667e-16 -9.53667e-16)
(2.48518e-11 4.14523e-15 -4.14523e-15)
(7.80786e-12 6.24716e-16 -6.24716e-16)
(6.55971e-12 -1.37954e-15 1.37954e-15)
(1.09977e-11 -5.58697e-15 5.58697e-15)
(8.29268e-12 -3.16976e-15 3.16976e-15)
(8.39835e-12 -2.95572e-15 2.95572e-15)
(-9.56234e-13 -4.92564e-15 4.92564e-15)
(-5.79072e-12 -9.06093e-15 9.06093e-15)
(-5.21858e-12 -1.53439e-14 1.53439e-14)
(-7.30789e-12 -2.3755e-14 2.3755e-14)
(7.31694e-14 -2.63483e-14 2.63483e-14)
(1.6228e-12 -2.63888e-14 2.63888e-14)
(-1.15782e-12 -2.37264e-14 2.37264e-14)
(-6.97432e-12 -1.47223e-14 1.47223e-14)
(-1.24201e-11 -7.86613e-15 7.86613e-15)
(-6.23899e-12 -3.13892e-15 3.13892e-15)
(-1.64785e-12 -5.23278e-16 5.23278e-16)
(4.50412e-12 0 0)
(1.13806e-11 0 0)
(2.56555e-12 0 0)
(-3.35806e-12 0 0)
(-1.32327e-11 0 0)
(-1.4572e-11 6.73757e-16 -6.73757e-16)
(1.67024e-12 3.28946e-15 -3.28946e-15)
(4.25101e-12 -1.67987e-16 1.67987e-16)
(-1.26103e-12 -5.62206e-15 5.62206e-15)
(-2.58881e-12 -5.04212e-15 5.04212e-15)
(7.77678e-12 -6.45963e-15 6.45963e-15)
(1.6954e-11 -1.91042e-15 1.91042e-15)
(6.86791e-12 6.41744e-16 -6.41744e-16)
(-8.61377e-12 3.70579e-15 -3.70579e-15)
(-1.50852e-11 8.70114e-16 -8.70114e-16)
(-1.49691e-11 0 0)
(-9.28144e-12 0 0)
(-1.55121e-11 0 0)
(-1.69898e-11 -1.68216e-15 1.68216e-15)
(6.80934e-13 -5.27873e-15 5.27873e-15)
(7.73228e-12 -3.15304e-15 3.15304e-15)
(8.07296e-12 -6.75466e-15 6.75466e-15)
(7.97141e-13 -1.22396e-14 1.22396e-14)
(-1.41477e-11 -1.95925e-14 1.95925e-14)
(-1.4042e-11 -2.12673e-14 2.12673e-14)
(-5.21872e-12 -1.9667e-14 1.9667e-14)
(7.98663e-12 -1.25236e-14 1.25236e-14)
(1.43393e-11 -7.26848e-15 7.26848e-15)
(9.49538e-12 -3.88668e-15 3.88668e-15)
(1.51622e-11 -2.36305e-15 2.36305e-15)
(1.32496e-11 -2.68259e-15 2.68259e-15)
(8.80384e-12 -4.83058e-15 4.83058e-15)
(7.41723e-12 -1.50125e-15 1.50125e-15)
(6.70975e-13 0 0)
)
;

boundaryField
{
    wedge0
    {
        type            wedge;
    }
    wedge1
    {
        type            wedge;
    }
    wedge2
    {
        type            wedge;
    }
    wedge3
    {
        type            wedge;
    }
    outlet
    {
        type            zeroGradient;
    }
    defaultFaces
    {
        type            empty;
    }
}


// ************************************************************************* //
