/*--------------------------------*- C++ -*----------------------------------*\
| =========                 |                                                 |
| \\      /  F ield         | OpenFOAM: The Open Source CFD Toolbox           |
|  \\    /   O peration     | Version:  2312                                  |
|   \\  /    A nd           | Website:  www.openfoam.com                      |
|    \\/     M anipulation  |                                                 |
\*---------------------------------------------------------------------------*/
FoamFile
{
    version     2.0;
    format      ascii;
    arch        "LSB;label=32;scalar=64";
    class       volScalarField;
    location    "0.0002";
    object      p;
}
// * * * * * * * * * * * * * * * * * * * * * * * * * * * * * * * * * * * * * //

dimensions      [1 -1 -2 0 0 0 0];

internalField   nonuniform List<scalar> 
100
(
6.84628e+08
6.73534e+08
6.60194e+08
6.51663e+08
6.47693e+08
6.4594e+08
6.4503e+08
6.44454e+08
6.44049e+08
6.43757e+08
6.43545e+08
6.43388e+08
6.43269e+08
6.43175e+08
6.43097e+08
6.43032e+08
6.42981e+08
6.42942e+08
6.42902e+08
6.42844e+08
6.42782e+08
6.42769e+08
6.42837e+08
6.42919e+08
6.42874e+08
6.42644e+08
6.42366e+08
6.42271e+08
6.42514e+08
6.43923e+08
6.65733e+08
6.4919e+08
6.42969e+08
6.42297e+08
6.42512e+08
6.42895e+08
6.4321e+08
6.43377e+08
6.43431e+08
6.43455e+08
6.43513e+08
6.43622e+08
6.43764e+08
6.43912e+08
6.44048e+08
6.4417e+08
6.44284e+08
6.444e+08
6.4452e+08
6.44647e+08
6.44777e+08
6.44908e+08
6.45038e+08
6.45169e+08
6.453e+08
6.45433e+08
6.45568e+08
6.45705e+08
6.45843e+08
6.45983e+08
6.46124e+08
6.46267e+08
6.46411e+08
6.46558e+08
6.46706e+08
6.46856e+08
6.47007e+08
6.47161e+08
6.47316e+08
6.47474e+08
6.47633e+08
6.47794e+08
6.47957e+08
6.48121e+08
6.48288e+08
6.48456e+08
6.48626e+08
6.48797e+08
6.4897e+08
6.49144e+08
6.49319e+08
6.49496e+08
6.49674e+08
6.49853e+08
6.50033e+08
6.50214e+08
6.50396e+08
6.50578e+08
6.50762e+08
6.50946e+08
6.51131e+08
6.51317e+08
6.51503e+08
6.51691e+08
6.5188e+08
6.5207e+08
6.52261e+08
6.52453e+08
6.5264e+08
6.528e+08
)
;

boundaryField
{
    sides
    {
        type            zeroGradient;
    }
    empty
    {
        type            empty;
    }
}


// ************************************************************************* //
