/*--------------------------------*- C++ -*----------------------------------*\
| =========                 |                                                 |
| \\      /  F ield         | OpenFOAM: The Open Source CFD Toolbox           |
|  \\    /   O peration     | Version:  2312                                  |
|   \\  /    A nd           | Website:  www.openfoam.com                      |
|    \\/     M anipulation  |                                                 |
\*---------------------------------------------------------------------------*/
FoamFile
{
    version     2.0;
    format      ascii;
    arch        "LSB;label=32;scalar=64";
    class       volScalarField;
    location    "0.0002";
    object      rho;
}
// * * * * * * * * * * * * * * * * * * * * * * * * * * * * * * * * * * * * * //

dimensions      [1 -3 0 0 0 0 0];

internalField   nonuniform List<scalar> 
100
(
3.3024
3.13686
2.94346
2.7453
2.54394
2.3366
2.12484
1.91324
1.70704
1.51092
1.32839
1.16168
1.01182
0.878852
0.762113
0.660458
0.572487
0.496703
0.431616
0.375819
0.328037
0.287139
0.252122
0.222099
0.196303
0.174097
0.154963
0.138469
0.124233
0.11201
0.103399
0.0994315
0.0984787
0.0983757
0.0984086
0.0984673
0.0985156
0.0985411
0.0985494
0.0985531
0.098562
0.0985787
0.0986004
0.098623
0.0986439
0.0986626
0.0986802
0.0986978
0.0987163
0.0987357
0.0987555
0.0987756
0.0987956
0.0988156
0.0988358
0.0988561
0.0988768
0.0988977
0.0989189
0.0989403
0.0989619
0.0989838
0.0990059
0.0990283
0.099051
0.099074
0.0990972
0.0991207
0.0991445
0.0991686
0.099193
0.0992177
0.0992426
0.0992678
0.0992933
0.0993191
0.0993451
0.0993713
0.0993978
0.0994245
0.0994513
0.0994784
0.0995057
0.0995331
0.0995606
0.0995883
0.0996162
0.0996441
0.0996722
0.0997004
0.0997288
0.0997572
0.0997858
0.0998146
0.0998435
0.0998726
0.0999019
0.0999312
0.09996
0.0999844
)
;

boundaryField
{
    sides
    {
        type            zeroGradient;
    }
    empty
    {
        type            empty;
    }
}


// ************************************************************************* //
