/*--------------------------------*- C++ -*----------------------------------*\
| =========                 |                                                 |
| \\      /  F ield         | OpenFOAM: The Open Source CFD Toolbox           |
|  \\    /   O peration     | Version:  2312                                  |
|   \\  /    A nd           | Website:  www.openfoam.com                      |
|    \\/     M anipulation  |                                                 |
\*---------------------------------------------------------------------------*/
FoamFile
{
    version     2.0;
    format      ascii;
    arch        "LSB;label=32;scalar=64";
    class       volScalarField;
    location    "0.0002";
    object      T;
}
// * * * * * * * * * * * * * * * * * * * * * * * * * * * * * * * * * * * * * //

dimensions      [0 0 0 1 0 0 0];

internalField   nonuniform List<scalar> 
100
(
180991
187455
195815
207236
222277
241345
265024
294073
329387
371973
422946
483525
555038
638917
736697
850001
980536
1.13007e+06
1.30041e+06
1.49334e+06
1.71069e+06
1.95431e+06
2.22598e+06
2.5272e+06
2.8591e+06
3.22264e+06
3.61897e+06
4.04946e+06
4.51519e+06
5.01888e+06
5.62104e+06
5.70006e+06
5.70006e+06
5.70006e+06
5.70006e+06
5.70006e+06
5.70006e+06
5.70006e+06
5.70006e+06
5.70006e+06
5.70006e+06
5.70006e+06
5.70006e+06
5.70006e+06
5.70006e+06
5.70006e+06
5.70006e+06
5.70006e+06
5.70006e+06
5.70006e+06
5.70006e+06
5.70006e+06
5.70006e+06
5.70006e+06
5.70006e+06
5.70006e+06
5.70006e+06
5.70006e+06
5.70006e+06
5.70006e+06
5.70006e+06
5.70006e+06
5.70006e+06
5.70006e+06
5.70006e+06
5.70006e+06
5.70006e+06
5.70006e+06
5.70006e+06
5.70006e+06
5.70006e+06
5.70006e+06
5.70006e+06
5.70006e+06
5.70006e+06
5.70006e+06
5.70006e+06
5.70006e+06
5.70006e+06
5.70006e+06
5.70006e+06
5.70006e+06
5.70006e+06
5.70006e+06
5.70006e+06
5.70006e+06
5.70006e+06
5.70006e+06
5.70006e+06
5.70006e+06
5.70006e+06
5.70006e+06
5.70006e+06
5.70006e+06
5.70006e+06
5.70006e+06
5.70006e+06
5.70006e+06
5.70006e+06
5.70006e+06
)
;

boundaryField
{
    sides
    {
        type            zeroGradient;
    }
    empty
    {
        type            empty;
    }
}


// ************************************************************************* //
