/*--------------------------------*- C++ -*----------------------------------*\
| =========                 |                                                 |
| \\      /  F ield         | OpenFOAM: The Open Source CFD Toolbox           |
|  \\    /   O peration     | Version:  2312                                  |
|   \\  /    A nd           | Website:  www.openfoam.com                      |
|    \\/     M anipulation  |                                                 |
\*---------------------------------------------------------------------------*/
FoamFile
{
    version     2.0;
    format      ascii;
    arch        "LSB;label=32;scalar=64";
    class       volScalarField;
    location    "0.0002";
    object      thermo:e;
}
// * * * * * * * * * * * * * * * * * * * * * * * * * * * * * * * * * * * * * //

dimensions      [0 2 -2 0 0 0 0];

internalField   nonuniform List<scalar> 
100
(
3.09422e+08
3.20472e+08
3.34764e+08
3.5429e+08
3.80004e+08
4.12603e+08
4.53084e+08
5.02746e+08
5.63119e+08
6.35925e+08
7.23067e+08
8.26632e+08
9.48891e+08
1.09229e+09
1.25945e+09
1.45316e+09
1.67632e+09
1.93197e+09
2.22317e+09
2.55301e+09
2.9246e+09
3.34109e+09
3.80553e+09
4.3205e+09
4.88791e+09
5.50941e+09
6.18699e+09
6.92295e+09
7.71916e+09
8.58027e+09
9.60972e+09
1.09554e+10
1.25261e+10
1.4164e+10
1.58089e+10
1.74476e+10
1.90719e+10
2.06748e+10
2.225e+10
2.37923e+10
2.52966e+10
2.67583e+10
2.8173e+10
2.95366e+10
3.08458e+10
3.20976e+10
3.32899e+10
3.44212e+10
3.54905e+10
3.64973e+10
3.74415e+10
3.83237e+10
3.91447e+10
3.9906e+10
4.06091e+10
4.12561e+10
4.18492e+10
4.23909e+10
4.28837e+10
4.33306e+10
4.37342e+10
4.40973e+10
4.4423e+10
4.47139e+10
4.49729e+10
4.52027e+10
4.54058e+10
4.55847e+10
4.57418e+10
4.58792e+10
4.5999e+10
4.61031e+10
4.61933e+10
4.62713e+10
4.63383e+10
4.63959e+10
4.64452e+10
4.64873e+10
4.65232e+10
4.65537e+10
4.65795e+10
4.66015e+10
4.662e+10
4.66357e+10
4.66489e+10
4.66601e+10
4.66697e+10
4.66777e+10
4.66846e+10
4.66905e+10
4.66956e+10
4.67e+10
4.67039e+10
4.67073e+10
4.67103e+10
4.6713e+10
4.67156e+10
4.67179e+10
4.672e+10
4.67217e+10
)
;

boundaryField
{
    sides
    {
        type            zeroGradient;
    }
    empty
    {
        type            empty;
    }
}


// ************************************************************************* //
