/*--------------------------------*- C++ -*----------------------------------*\
| =========                 |                                                 |
| \\      /  F ield         | OpenFOAM: The Open Source CFD Toolbox           |
|  \\    /   O peration     | Version:  2312                                  |
|   \\  /    A nd           | Website:  www.openfoam.com                      |
|    \\/     M anipulation  |                                                 |
\*---------------------------------------------------------------------------*/
FoamFile
{
    version     2.0;
    format      ascii;
    arch        "LSB;label=32;scalar=64";
    class       volVectorField;
    location    "0.0002";
    object      U;
}
// * * * * * * * * * * * * * * * * * * * * * * * * * * * * * * * * * * * * * //

dimensions      [0 1 -1 0 0 0 0];

internalField   nonuniform List<vector> 
100
(
(-18287.7 0 0)
(-18386.2 0 0)
(-18574.6 0 0)
(-18717.4 0 0)
(-18779 0 0)
(-18791.8 0 0)
(-18786.3 0 0)
(-18776.3 0 0)
(-18766.2 0 0)
(-18757.1 0 0)
(-18749.1 0 0)
(-18742 0 0)
(-18735.3 0 0)
(-18728.9 0 0)
(-18722.6 0 0)
(-18716.4 0 0)
(-18710.2 0 0)
(-18704.3 0 0)
(-18698 0 0)
(-18690.7 0 0)
(-18682.6 0 0)
(-18676.4 0 0)
(-18674.8 0 0)
(-18674.8 0 0)
(-18667.6 0 0)
(-18647 0 0)
(-18620.3 0 0)
(-18604.8 0 0)
(-18610.3 0 0)
(-18560.2 0 0)
(-16716.5 0 0)
(-14227.5 0 0)
(-13537.5 0 0)
(-13463.8 0 0)
(-13423.5 0 0)
(-13376.2 0 0)
(-13338.4 0 0)
(-13319.2 0 0)
(-13314.5 0 0)
(-13313.9 0 0)
(-13309 0 0)
(-13297.8 0 0)
(-13282.2 0 0)
(-13265.8 0 0)
(-13250.7 0 0)
(-13237.4 0 0)
(-13225 0 0)
(-13212.5 0 0)
(-13199.3 0 0)
(-13185.3 0 0)
(-13170.9 0 0)
(-13156.3 0 0)
(-13141.6 0 0)
(-13127 0 0)
(-13112.2 0 0)
(-13097.3 0 0)
(-13082 0 0)
(-13066.5 0 0)
(-13050.8 0 0)
(-13034.9 0 0)
(-13018.7 0 0)
(-13002.4 0 0)
(-12985.8 0 0)
(-12969 0 0)
(-12951.9 0 0)
(-12934.6 0 0)
(-12917.1 0 0)
(-12899.3 0 0)
(-12881.2 0 0)
(-12862.9 0 0)
(-12844.4 0 0)
(-12825.6 0 0)
(-12806.5 0 0)
(-12787.3 0 0)
(-12767.8 0 0)
(-12748 0 0)
(-12728.1 0 0)
(-12708 0 0)
(-12687.6 0 0)
(-12667.1 0 0)
(-12646.4 0 0)
(-12625.5 0 0)
(-12604.5 0 0)
(-12583.4 0 0)
(-12562.1 0 0)
(-12540.7 0 0)
(-12519.2 0 0)
(-12497.5 0 0)
(-12475.8 0 0)
(-12453.9 0 0)
(-12432 0 0)
(-12409.9 0 0)
(-12387.8 0 0)
(-12365.5 0 0)
(-12343 0 0)
(-12320.4 0 0)
(-12297.7 0 0)
(-12274.9 0 0)
(-12252.6 0 0)
(-12233.6 0 0)
)
;

boundaryField
{
    sides
    {
        type            zeroGradient;
    }
    empty
    {
        type            empty;
    }
}


// ************************************************************************* //
