/*--------------------------------*- C++ -*----------------------------------*\
| =========                 |                                                 |
| \\      /  F ield         | OpenFOAM: The Open Source CFD Toolbox           |
|  \\    /   O peration     | Version:  2312                                  |
|   \\  /    A nd           | Website:  www.openfoam.com                      |
|    \\/     M anipulation  |                                                 |
\*---------------------------------------------------------------------------*/
FoamFile
{
    version     2.0;
    format      ascii;
    arch        "LSB;label=32;scalar=64";
    class       volScalarField;
    location    "0.044";
    object      rho;
}
// * * * * * * * * * * * * * * * * * * * * * * * * * * * * * * * * * * * * * //

dimensions      [1 -3 0 0 0 0 0];

internalField   nonuniform List<scalar> 
100
(
0.519329
0.516586
0.513367
0.510331
0.507109
0.504087
0.501035
0.498173
0.495399
0.492801
0.490344
0.488046
0.485891
0.48387
0.481968
0.480169
0.478457
0.476821
0.475239
0.473716
0.472215
0.470774
0.469314
0.467942
0.466494
0.46519
0.463737
0.462501
0.461051
0.459866
0.458461
0.457287
0.455996
0.454784
0.453678
0.452391
0.451514
0.450137
0.449507
0.448032
0.447653
0.446068
0.445926
0.444248
0.444277
0.442601
0.442648
0.441171
0.441016
0.439983
0.439436
0.439022
0.438037
0.43824
0.436972
0.437596
0.436336
0.437096
0.43612
0.436784
0.43622
0.436704
0.436511
0.436854
0.436903
0.437184
0.437356
0.43763
0.437864
0.438159
0.438449
0.438802
0.439203
0.439738
0.440483
0.441662
0.443646
0.447139
0.453164
0.462843
0.476628
0.49352
0.511178
0.527056
0.539606
0.548556
0.55449
0.558247
0.560579
0.562034
0.562967
0.563603
0.564069
0.564447
0.564773
0.565077
0.565366
0.565652
0.565938
0.566142
)
;

boundaryField
{
    sides
    {
        type            zeroGradient;
    }
    empty
    {
        type            empty;
    }
}


// ************************************************************************* //
