/*--------------------------------*- C++ -*----------------------------------*\
| =========                 |                                                 |
| \\      /  F ield         | OpenFOAM: The Open Source CFD Toolbox           |
|  \\    /   O peration     | Version:  2312                                  |
|   \\  /    A nd           | Website:  www.openfoam.com                      |
|    \\/     M anipulation  |                                                 |
\*---------------------------------------------------------------------------*/
FoamFile
{
    version     2.0;
    format      ascii;
    arch        "LSB;label=32;scalar=64";
    class       volScalarField;
    location    "0.044";
    object      T;
}
// * * * * * * * * * * * * * * * * * * * * * * * * * * * * * * * * * * * * * //

dimensions      [0 0 0 1 0 0 0];

internalField   nonuniform List<scalar> 
100
(
234.233
235.254
234.375
234.895
234.487
234.689
234.496
234.479
234.299
234.118
233.85
233.529
233.145
232.704
232.214
231.675
231.108
230.489
229.882
229.185
228.585
227.784
227.266
226.287
225.963
224.69
224.695
223.003
223.441
221.274
222.129
219.593
220.652
218.058
218.919
216.741
216.882
215.674
214.541
214.878
211.921
214.373
209.084
214.133
206.187
214.021
203.517
213.772
201.445
213.091
200.276
211.814
200.085
210.029
200.655
208.064
201.578
206.316
202.452
205.057
203.061
204.33
203.399
204.005
203.573
203.909
203.689
203.919
203.797
203.981
203.915
204.078
204.056
204.226
204.269
204.513
204.733
205.281
206.077
207.553
209.644
212.509
215.583
218.609
220.994
222.848
224
224.837
225.262
225.622
225.758
225.941
225.983
226.107
226.123
226.228
226.24
226.339
226.352
226.457
)
;

boundaryField
{
    sides
    {
        type            zeroGradient;
    }
    empty
    {
        type            empty;
    }
}


// ************************************************************************* //
