/*--------------------------------*- C++ -*----------------------------------*\
| =========                 |                                                 |
| \\      /  F ield         | OpenFOAM: The Open Source CFD Toolbox           |
|  \\    /   O peration     | Version:  2312                                  |
|   \\  /    A nd           | Website:  www.openfoam.com                      |
|    \\/     M anipulation  |                                                 |
\*---------------------------------------------------------------------------*/
FoamFile
{
    version     2.0;
    format      ascii;
    arch        "LSB;label=32;scalar=64";
    class       volScalarField;
    location    "0.044";
    object      thermo:e;
}
// * * * * * * * * * * * * * * * * * * * * * * * * * * * * * * * * * * * * * //

dimensions      [0 2 -2 0 0 0 0];

internalField   nonuniform List<scalar> 
100
(
168460
169194
168562
168936
168643
168788
168650
168637
168508
168378
168185
167954
167678
167360
167008
166620
166213
165768
165331
164830
164398
163822
163450
162746
162512
161597
161600
160384
160699
159140
159755
157931
158693
156827
157446
155880
155981
155113
154298
154540
152413
154177
150373
154005
148289
153924
146369
153745
144879
153255
144039
152336
143901
151053
144311
149639
144975
148382
145604
147477
146041
146954
146284
146720
146410
146651
146493
146659
146571
146703
146656
146773
146757
146880
146910
147085
147244
147638
148211
149272
150776
152837
155048
157223
158939
160273
161101
161703
162008
162267
162365
162497
162527
162616
162627
162703
162712
162783
162792
162868
)
;

boundaryField
{
    sides
    {
        type            zeroGradient;
    }
    empty
    {
        type            empty;
    }
}


// ************************************************************************* //
