/*--------------------------------*- C++ -*----------------------------------*\
| =========                 |                                                 |
| \\      /  F ield         | OpenFOAM: The Open Source CFD Toolbox           |
|  \\    /   O peration     | Version:  2312                                  |
|   \\  /    A nd           | Website:  www.openfoam.com                      |
|    \\/     M anipulation  |                                                 |
\*---------------------------------------------------------------------------*/
FoamFile
{
    version     2.0;
    format      ascii;
    arch        "LSB;label=32;scalar=64";
    class       volVectorField;
    location    "0.044";
    object      U;
}
// * * * * * * * * * * * * * * * * * * * * * * * * * * * * * * * * * * * * * //

dimensions      [0 1 -1 0 0 0 0];

internalField   nonuniform List<vector> 
100
(
(157.097 0 0)
(158.94 0 0)
(161.154 0 0)
(163.163 0 0)
(165.371 0 0)
(167.456 0 0)
(169.652 0 0)
(171.797 0 0)
(173.988 0 0)
(176.166 0 0)
(178.357 0 0)
(180.546 0 0)
(182.736 0 0)
(184.922 0 0)
(187.106 0 0)
(189.284 0 0)
(191.459 0 0)
(193.621 0 0)
(195.787 0 0)
(197.929 0 0)
(200.087 0 0)
(202.198 0 0)
(204.356 0 0)
(206.422 0 0)
(208.586 0 0)
(210.597 0 0)
(212.767 0 0)
(214.724 0 0)
(216.88 0 0)
(218.806 0 0)
(220.908 0 0)
(222.844 0 0)
(224.836 0 0)
(226.824 0 0)
(228.66 0 0)
(230.725 0 0)
(232.377 0 0)
(234.522 0 0)
(235.976 0 0)
(238.19 0 0)
(239.438 0 0)
(241.704 0 0)
(242.748 0 0)
(245.015 0 0)
(245.906 0 0)
(248.062 0 0)
(248.914 0 0)
(250.784 0 0)
(251.747 0 0)
(253.159 0 0)
(254.343 0 0)
(255.207 0 0)
(256.611 0 0)
(256.978 0 0)
(258.468 0 0)
(258.513 0 0)
(259.889 0 0)
(259.826 0 0)
(260.924 0 0)
(260.909 0 0)
(261.678 0 0)
(261.76 0 0)
(262.256 0 0)
(262.408 0 0)
(262.733 0 0)
(262.909 0 0)
(263.148 0 0)
(263.319 0 0)
(263.513 0 0)
(263.667 0 0)
(263.822 0 0)
(263.934 0 0)
(264.01 0 0)
(263.99 0 0)
(263.817 0 0)
(263.326 0 0)
(262.254 0 0)
(260.126 0 0)
(256.313 0 0)
(250.239 0 0)
(241.869 0 0)
(232.046 0 0)
(222.228 0 0)
(213.776 0 0)
(207.373 0 0)
(203.021 0 0)
(200.316 0 0)
(198.773 0 0)
(197.982 0 0)
(197.65 0 0)
(197.592 0 0)
(197.69 0 0)
(197.878 0 0)
(198.114 0 0)
(198.379 0 0)
(198.658 0 0)
(198.946 0 0)
(199.238 0 0)
(199.535 0 0)
(199.772 0 0)
)
;

boundaryField
{
    sides
    {
        type            mywaveTransmissive;
        gamma           1.4;
        value           nonuniform List<vector> 2((199.881 0 0) (156.74 0 0));
    }
    empty
    {
        type            empty;
    }
}


// ************************************************************************* //
