0.000749886 	336397 	0.000256098 	1.90637 	-1.97519e-08 	2.08235e-08
0.0016069 	336400 	0.000256116 	3.87664 	-2.02035e-08 	2.12739e-08
0.0025654 	336402 	0.000256149 	6.07706 	-2.07921e-08 	2.18647e-08
0.00354676 	336402 	0.000256201 	8.33303 	-2.10412e-08 	2.1981e-08
0.0045362 	336403 	0.000256277 	10.6097 	-2.03136e-08 	2.11366e-08
0.00552938 	336403 	0.000256381 	12.8972 	-2.05567e-08 	2.1293e-08
0.0065246 	336403 	0.000256518 	15.1924 	-2.04701e-08 	2.11461e-08
0.00752105 	336403 	0.000256693 	17.4937 	-2.01482e-08 	2.07795e-08
0.00851829 	336403 	0.000256911 	19.7998 	-1.91058e-08 	1.97012e-08
0.00951608 	336403 	0.000257175 	22.11 	-1.75265e-08 	1.80956e-08
0.0105143 	336403 	0.000257493 	24.4237 	-1.59764e-08 	1.65238e-08
0.0115127 	336404 	0.000257867 	26.7403 	-1.44635e-08 	1.49971e-08
0.0125114 	336404 	0.000258303 	29.0595 	-1.27839e-08 	1.33083e-08
0.0135103 	336404 	0.000258807 	31.3815 	-1.09563e-08 	1.14758e-08
0.0145093 	336404 	0.000259384 	33.7065 	-8.99035e-09 	9.50927e-09
0.0155084 	336404 	0.000260038 	36.035 	-6.88717e-09 	7.40987e-09
0.0165076 	336404 	0.000260776 	38.3678 	-4.71179e-09 	5.21042e-09
0.0175069 	336404 	0.000261603 	40.7053 	-3.36509e-09 	3.84942e-09
0.0185062 	336404 	0.000262525 	43.0479 	-2.10304e-09 	2.54868e-09
0.0195056 	336404 	0.000263549 	45.396 	-1.52152e-09 	1.93436e-09
0.020505 	336404 	0.00026468 	47.7502 	-1.14814e-09 	1.52006e-09
0.0215045 	336404 	0.000265926 	50.1111 	-9.6575e-10 	1.31176e-09
0.022504 	336404 	0.000267292 	52.4793 	-1.15551e-09 	1.48408e-09
0.0235035 	336404 	0.000268787 	54.8554 	-1.70842e-09 	2.01489e-09
0.0245031 	336404 	0.000270419 	57.2399 	-1.98068e-09 	2.26865e-09
0.0255027 	336404 	0.000272194 	59.6336 	-1.97752e-09 	2.25529e-09
0.0265023 	336404 	0.000274123 	62.0371 	-2.11922e-09 	2.36099e-09
0.0275019 	336404 	0.000276214 	64.4513 	-2.44115e-09 	2.66506e-09
0.0285015 	336404 	0.000278477 	66.877 	-2.02632e-09 	2.22858e-09
0.0295012 	336404 	0.000280923 	69.3153 	-1.85687e-09 	2.03859e-09
0.0305008 	336404 	0.000283562 	71.7674 	-1.89283e-09 	2.08242e-09
0.0315005 	336405 	0.000286407 	74.2341 	-2.17853e-09 	2.34576e-09
0.0325002 	336405 	0.000289471 	76.7167 	-1.88241e-09 	2.02764e-09
0.0334999 	336405 	0.000292768 	79.2161 	-1.71204e-09 	1.80103e-09
0.0344996 	336405 	0.000296312 	81.7335 	-1.5587e-09 	1.61333e-09
0.0354993 	336405 	0.000300121 	84.2699 	-1.55972e-09 	1.55973e-09
0.036499 	336405 	0.000304211 	86.8266 	-1.45147e-09 	1.45147e-09
0.0374987 	336405 	0.000308604 	89.405 	-1.44476e-09 	1.44476e-09
0.0384985 	336405 	0.000313318 	92.0064 	-1.53428e-09 	1.53428e-09
0.0394982 	336405 	0.000318379 	94.6327 	-1.82872e-09 	1.82872e-09
0.040498 	336406 	0.00032381 	97.2854 	-1.81733e-09 	1.81733e-09
0.0414977 	336406 	0.000329641 	99.9665 	-1.49754e-09 	1.49754e-09
0.0424975 	336406 	0.000335901 	102.678 	-1.23689e-09 	1.23689e-09
0.0434972 	336406 	0.000342624 	105.421 	-1.08994e-09 	1.08994e-09
0.044497 	336406 	0.000349847 	108.198 	-1.03061e-09 	1.03061e-09
0.0454967 	336407 	0.000357613 	111.011 	-1.11048e-09 	1.11048e-09
0.0464965 	336407 	0.000365966 	113.861 	-1.03661e-09 	1.03661e-09
0.0474963 	336407 	0.000374957 	116.753 	-1.02083e-09 	1.02083e-09
0.0484961 	336407 	0.000384645 	119.688 	-8.51106e-10 	8.51106e-10
0.0494958 	336407 	0.000395091 	122.669 	-8.3083e-10 	8.3083e-10
0.0504956 	336408 	0.000406369 	125.701 	-8.18348e-10 	8.18348e-10
0.0514954 	336408 	0.000418557 	128.786 	-8.03691e-10 	8.03691e-10
0.0524952 	336409 	0.000431748 	131.923 	-7.51644e-10 	7.51644e-10
0.053495 	336412 	0.000446045 	134.974 	-7.28358e-10 	7.28358e-10
0.0544948 	336419 	0.000461567 	137.603 	-7.20167e-10 	7.20167e-10
0.0554946 	336404 	0.000478323 	138.236 	-7.1101e-10 	7.1101e-10
0.0564944 	336402 	0.000496224 	137.295 	-7.05211e-10 	7.05211e-10
0.0574942 	336418 	0.000515156 	137.384 	-6.91404e-10 	6.91404e-10
0.058494 	336413 	0.000535057 	139.001 	-6.7452e-10 	6.7452e-10
0.0594938 	336412 	0.000555975 	141 	-5.94525e-10 	5.94525e-10
0.0604936 	336412 	0.000577964 	143.11 	-4.97291e-10 	4.97291e-10
0.0614934 	336412 	0.000601082 	145.242 	-3.37798e-10 	3.37798e-10
0.0624932 	336413 	0.00062539 	147.402 	-1.99329e-10 	1.99329e-10
0.063493 	336413 	0.000650957 	149.561 	-7.7051e-11 	7.7051e-11
0.0644928 	336414 	0.000677854 	151.727 	0 	6.25572e-31
0.0654926 	336415 	0.000706159 	153.888 	2.35238e-11 	-2.35238e-11
0.0664924 	336415 	0.000735951 	156.052 	-1.50836e-11 	1.50836e-11
0.0674922 	336416 	0.000767318 	158.212 	2.09708e-10 	-2.09708e-10
0.068492 	336417 	0.000800351 	160.374 	1.29482e-10 	-1.29482e-10
0.0694918 	336418 	0.000835146 	162.536 	8.61488e-11 	-8.61488e-11
0.0704916 	336419 	0.000871806 	164.696 	4.37175e-11 	-4.37175e-11
0.0714915 	336420 	0.000910442 	166.86 	1.13269e-11 	-1.13269e-11
0.0724913 	336422 	0.000951168 	169.022 	1.34347e-12 	-1.34347e-12
0.0734911 	336423 	0.000994108 	171.188 	1.08007e-11 	-1.08007e-11
0.0744909 	336424 	0.00103939 	173.353 	-2.00195e-11 	2.00195e-11
0.0754907 	336426 	0.00108716 	175.523 	8.37186e-11 	-8.37186e-11
0.0764906 	336427 	0.00113756 	177.692 	5.58832e-11 	-5.58832e-11
0.0774904 	336429 	0.00119074 	179.866 	2.77143e-11 	-2.77143e-11
0.0784902 	336431 	0.00124688 	182.041 	1.01995e-11 	-1.01995e-11
0.07949 	336433 	0.00130614 	184.221 	1.22024e-12 	-1.22218e-12
0.0804898 	336435 	0.00136873 	186.402 	9.92514e-12 	-9.92078e-12
0.0814897 	336437 	0.00143482 	188.59 	-1.59924e-11 	1.59884e-11
0.0824895 	336440 	0.00150464 	190.779 	4.03684e-11 	-4.037e-11
0.0834893 	336442 	0.0015784 	192.976 	3.94104e-11 	-3.94101e-11
0.0844891 	336445 	0.00165636 	195.175 	4.59399e-11 	-4.59398e-11
0.085489 	336448 	0.00173874 	197.381 	-9.05619e-12 	9.11017e-12
0.0864888 	336451 	0.00182583 	199.591 	9.27835e-12 	-9.27783e-12
0.0874886 	336455 	0.0019179 	201.807 	-3.49321e-11 	3.49331e-11
0.0884884 	336458 	0.00201526 	204.03 	-2.2049e-11 	2.20486e-11
0.0894883 	336462 	0.00211822 	206.256 	-1.12512e-12 	1.12765e-12
0.0904881 	336466 	0.00222712 	208.49 	-3.19204e-11 	3.1919e-11
0.0914879 	336470 	0.00234232 	210.727 	-3.80374e-11 	3.80388e-11
0.0924877 	336475 	0.00246419 	212.973 	-1.24903e-11 	1.89275e-11
0.0934876 	336480 	0.00259313 	215.221 	-4.14346e-11 	5.06246e-11
0.0944874 	336485 	0.00272958 	217.477 	-3.03799e-11 	3.47294e-11
0.0954872 	336490 	0.00287397 	219.734 	-1.83308e-11 	2.42287e-11
0.0964871 	336496 	0.00302679 	222 	-1.95438e-11 	2.31257e-11
0.0974869 	336502 	0.00318853 	224.267 	-6.03694e-12 	6.03771e-12
0.0984867 	336508 	0.00335973 	226.54 	-2.12111e-11 	2.1211e-11
0.0994866 	336514 	0.00354096 	228.815 	2.27694e-12 	-5.01499e-12
0.100486 	336521 	0.0037328 	231.093 	-5.82235e-12 	5.82176e-12
0.101486 	336529 	0.00393589 	233.373 	1.11663e-11 	-1.11654e-11
0.102486 	336536 	0.00415089 	235.652 	-5.8647e-12 	5.86446e-12
0.103486 	336544 	0.0043785 	237.931 	9.35328e-12 	-9.33407e-12
0.104486 	336553 	0.00461947 	240.206 	-5.6969e-12 	5.65617e-12
0.105486 	336562 	0.00487457 	242.479 	2.16906e-11 	-2.20249e-11
0.106485 	336572 	0.00514464 	244.746 	-7.11041e-13 	1.73738e-12
0.107485 	336582 	0.00543053 	247.008 	1.39313e-11 	-1.65433e-11
0.108485 	336592 	0.00573318 	249.262 	5.79496e-12 	-4.62662e-12
0.109485 	336604 	0.00605355 	251.511 	5.97496e-12 	-5.47499e-12
0.110485 	336616 	0.00639265 	253.752 	-5.24296e-12 	6.16545e-12
0.111485 	336630 	0.00675156 	255.987 	1.88772e-11 	-1.51805e-11
0.112484 	336644 	0.00713141 	258.217 	1.53558e-11 	-1.39842e-11
0.113484 	336659 	0.00753338 	260.444 	7.54301e-12 	-7.54294e-12
0.114484 	336676 	0.00795872 	262.671 	1.20386e-11 	-1.16591e-11
0.115484 	336693 	0.00840875 	264.9 	2.62721e-11 	-2.69073e-11
0.116484 	336712 	0.00888483 	267.135 	2.52021e-11 	-2.59453e-11
0.117484 	336733 	0.00938841 	269.377 	1.57513e-11 	-1.57523e-11
0.118483 	336755 	0.009921 	271.628 	1.88968e-11 	-2.14273e-11
0.119483 	336778 	0.0104842 	273.892 	1.5473e-11 	-1.46486e-11
0.120483 	336803 	0.0110796 	276.166 	6.21054e-12 	-8.95561e-12
0.121483 	336830 	0.011709 	278.453 	1.45051e-11 	-1.45313e-11
0.122483 	336859 	0.0123742 	280.75 	1.42292e-11 	-1.33685e-11
0.123483 	336888 	0.0130771 	283.06 	1.10429e-11 	-9.81964e-12
0.124482 	336920 	0.0138196 	285.374 	1.11261e-11 	-8.0324e-12
0.125482 	336953 	0.0146038 	287.697 	5.46228e-12 	-7.93479e-12
0.126482 	336988 	0.0154319 	290.017 	7.46369e-12 	-7.01294e-12
0.127482 	337025 	0.016306 	292.337 	7.17256e-12 	-9.76987e-12
0.128482 	337065 	0.0172284 	294.644 	7.67633e-12 	-7.6764e-12
0.129482 	337106 	0.0182016 	296.943 	5.42552e-12 	-7.08529e-12
0.130481 	337151 	0.0192281 	299.223 	6.36495e-12 	-6.64905e-12
0.131481 	337199 	0.0203103 	301.492 	6.47776e-12 	-4.36485e-12
0.132481 	337251 	0.0214512 	303.748 	6.40514e-12 	-3.62598e-12
0.133481 	337306 	0.0226532 	306.005 	3.43974e-12 	-3.85094e-12
0.134481 	337365 	0.0239194 	308.263 	4.97122e-12 	-6.92755e-12
0.135481 	337428 	0.0252527 	310.534 	1.86084e-12 	-1.50967e-12
0.13648 	337495 	0.0266561 	312.822 	3.60252e-12 	-1.67057e-12
0.13748 	337566 	0.0281327 	315.127 	2.71394e-12 	-1.85701e-12
0.13848 	337642 	0.0296858 	317.453 	1.85535e-12 	-7.62733e-13
0.13948 	337722 	0.0313186 	319.795 	3.03216e-12 	-3.18525e-12
0.14048 	337805 	0.0330345 	322.145 	5.74481e-13 	-4.46602e-13
0.14148 	337893 	0.0348372 	324.496 	2.86103e-12 	-2.29805e-12
0.14248 	337987 	0.0367301 	326.833 	3.22781e-13 	-2.67686e-13
0.143479 	338087 	0.0387172 	329.15 	8.96742e-13 	-1.4247e-12
0.144479 	338194 	0.0408023 	331.448 	3.7602e-13 	-1.17595e-12
0.145479 	338309 	0.0429893 	333.735 	4.64011e-13 	-1.08258e-12
0.146479 	338431 	0.0452823 	336.023 	3.66923e-13 	7.56019e-13
0.147479 	338561 	0.0476856 	338.321 	-4.76655e-14 	1.82999e-13
0.148479 	338698 	0.0502032 	340.642 	-2.08964e-13 	6.49762e-13
0.149478 	338842 	0.0528395 	342.989 	2.0085e-13 	1.35575e-14
0.150478 	338993 	0.0555991 	345.361 	6.77461e-13 	-1.24316e-12
0.151478 	339151 	0.0584866 	347.742 	-1.95007e-13 	-2.17713e-13
0.152478 	339321 	0.061507 	350.115 	-1.91395e-13 	2.58058e-13
0.153478 	339502 	0.0646654 	352.461 	-1.96983e-13 	-7.16012e-13
0.154478 	339696 	0.0679667 	354.786 	1.25621e-12 	-1.51855e-13
0.155477 	339901 	0.0714163 	357.102 	-1.55786e-12 	3.6582e-13
0.156477 	340118 	0.0750189 	359.432 	1.17548e-12 	-5.25123e-13
0.157477 	340345 	0.0787802 	361.782 	-1.50272e-12 	1.20817e-12
0.158477 	340582 	0.0827051 	364.167 	1.16601e-13 	-1.69517e-13
0.159477 	340830 	0.0867996 	366.576 	-7.50789e-13 	5.66139e-13
0.160477 	341094 	0.0910704 	368.98 	9.57376e-14 	1.19263e-13
0.161476 	341379 	0.0955238 	371.358 	-1.00723e-12 	9.46046e-13
0.162476 	341682 	0.100166 	373.718 	1.86097e-13 	-1.88494e-13
0.163476 	342001 	0.105002 	376.075 	-6.99354e-13 	8.70928e-13
0.164476 	342334 	0.110039 	378.455 	-8.9169e-13 	4.77879e-13
0.165476 	342680 	0.115283 	380.869 	-6.26027e-13 	2.02729e-13
0.166476 	343040 	0.120739 	383.317 	-1.27441e-12 	2.69558e-13
0.167476 	343427 	0.126419 	385.751 	-7.40159e-13 	-1.25844e-13
0.168475 	343841 	0.13233 	388.16 	-2.81593e-13 	-2.81474e-15
0.169475 	344281 	0.138478 	390.559 	-2.54591e-13 	1.00923e-13
0.170475 	344741 	0.144871 	392.974 	-1.52372e-13 	4.90733e-14
0.171475 	345214 	0.151513 	395.431 	-5.84693e-13 	1.72548e-13
0.172475 	345705 	0.158416 	397.924 	-9.16762e-13 	5.74172e-13
0.173475 	346233 	0.165591 	400.401 	-3.84557e-13 	3.34143e-13
0.174474 	346797 	0.17305 	402.846 	-7.3009e-13 	6.26766e-13
0.175474 	347394 	0.180799 	405.296 	-7.45885e-13 	7.45675e-13
0.176474 	348012 	0.188845 	407.782 	-8.40666e-13 	8.40224e-13
0.177474 	348645 	0.197197 	410.326 	-6.8383e-13 	6.7279e-13
0.178474 	349318 	0.205871 	412.867 	-8.18601e-13 	8.15722e-13
0.179474 	350040 	0.214883 	415.363 	-6.41017e-13 	6.4806e-13
0.180473 	350805 	0.224244 	417.862 	-6.02612e-13 	6.072e-13
0.181473 	351595 	0.233956 	420.41 	-4.4346e-13 	4.40757e-13
0.182473 	352403 	0.24403 	423.026 	-4.56987e-13 	4.47061e-13
0.183473 	353269 	0.254494 	425.621 	-2.87552e-13 	2.83746e-13
0.184473 	354195 	0.265363 	428.166 	-3.19652e-13 	3.10895e-13
0.185473 	355167 	0.276644 	430.736 	-1.56409e-13 	1.52858e-13
0.186473 	356156 	0.288338 	433.396 	-2.16374e-13 	2.16275e-13
0.187472 	357191 	0.300473 	436.091 	-1.46152e-13 	1.46151e-13
0.188472 	358309 	0.313081 	438.703 	-1.3175e-13 	1.32232e-13
0.189472 	359492 	0.32617 	441.327 	-1.95294e-13 	1.95476e-13
0.190472 	360694 	0.339733 	444.049 	-1.08164e-13 	1.08682e-13
0.191472 	361940 	0.353796 	446.833 	-1.15487e-13 	1.15483e-13
0.192472 	363292 	0.368411 	449.515 	-6.84471e-14 	6.79567e-14
0.193471 	364723 	0.383583 	452.214 	-1.37321e-13 	1.35878e-13
0.194471 	366163 	0.399287 	455.043 	-1.04428e-13 	1.04432e-13
0.195471 	367679 	0.415582 	457.908 	-2.30729e-14 	2.29107e-14
0.196471 	369320 	0.432513 	460.645 	-7.48946e-14 	7.61431e-14
0.197471 	371027 	0.450068 	463.46 	-6.3084e-14 	6.27892e-14
0.198471 	372743 	0.468226 	466.444 	-4.97465e-14 	4.96258e-14
0.199471 	374611 	0.487104 	469.33 	-5.29218e-14 	5.1613e-14
0.20047 	376599 	0.506704 	472.17 	-2.83463e-15 	3.53871e-15
0.20147 	378581 	0.526948 	475.2 	-1.62625e-14 	1.55e-14
0.20247 	380699 	0.547976 	478.248 	3.25872e-14 	-3.20358e-14
0.20347 	382984 	0.569824 	481.148 	1.14539e-14 	-1.25159e-14
0.20447 	385278 	0.592389 	484.252 	6.53403e-14 	-6.58548e-14
0.20547 	387700 	0.615808 	487.43 	-3.90336e-14 	3.78178e-14
0.206469 	390327 	0.640151 	490.416 	4.32727e-14 	-4.36345e-14
0.207469 	392942 	0.665254 	493.646 	6.02303e-16 	6.95645e-16
0.208469 	395741 	0.691334 	496.881 	2.11466e-14 	-2.18242e-14
0.209469 	398755 	0.718432 	500.02 	2.68342e-14 	-2.54426e-14
0.210469 	401752 	0.746403 	503.483 	-4.62551e-15 	4.62551e-15
0.211469 	405097 	0.775529 	506.634 	1.05942e-14 	-1.05942e-14
0.212468 	408344 	0.805532 	510.223 	1.52328e-14 	-1.52328e-14
0.213468 	412048 	0.836826 	513.42 	-1.08493e-14 	1.08493e-14
0.214468 	415565 	0.869017 	517.165 	1.63569e-14 	-1.63569e-14
0.215468 	419687 	0.902663 	520.397 	-2.89094e-14 	2.89094e-14
0.216468 	423488 	0.937188 	524.322 	-3.29101e-14 	3.29101e-14
0.217468 	428068 	0.973365 	527.577 	-3.83792e-14 	3.83792e-14
0.218468 	432171 	1.01035 	531.676 	-2.1077e-14 	2.1077e-14
0.219467 	437208 	1.04919 	534.959 	-4.2188e-14 	4.2188e-14
0.220467 	441669 	1.08878 	539.206 	-2.35587e-14 	2.35587e-14
0.221467 	447183 	1.13046 	542.551 	-5.13822e-14 	5.13822e-14
0.222467 	452058 	1.17286 	546.952 	-2.06293e-14 	2.06293e-14
0.223467 	458103 	1.21763 	550.369 	-5.96447e-14 	5.96447e-14
0.224467 	463431 	1.26305 	554.942 	-1.06981e-14 	1.06981e-14
0.225466 	470065 	1.31114 	558.43 	-3.28265e-14 	3.28265e-14
0.226466 	475883 	1.35977 	563.192 	-1.36856e-15 	1.36856e-15
0.227466 	483177 	1.41144 	566.743 	-3.95892e-14 	3.95892e-14
0.228466 	489517 	1.46346 	571.718 	-4.7672e-14 	4.7672e-14
0.229466 	497565 	1.51902 	575.324 	-3.3692e-14 	3.3692e-14
0.230466 	504453 	1.57454 	580.563 	-7.35499e-14 	7.35499e-14
0.231466 	513345 	1.63429 	584.212 	-5.11545e-14 	5.11545e-14
0.232465 	520781 	1.69333 	589.688 	-5.64229e-14 	5.64229e-14
0.233465 	530519 	1.75746 	593.358 	-3.78144e-14 	3.78144e-14
0.234465 	538557 	1.82029 	598.984 	-3.9935e-14 	3.9935e-14
0.235465 	549104 	1.88884 	602.712 	-2.11887e-14 	2.11887e-14
0.236465 	557850 	1.9558 	608.392 	-3.7323e-14 	3.7323e-14
0.237465 	569146 	2.02867 	612.25 	-1.06056e-14 	1.06056e-14
0.238464 	578755 	2.10022 	617.903 	-3.16999e-14 	3.16999e-14
0.239464 	590795 	2.17741 	621.997 	7.78371e-15 	-7.78371e-15
0.240464 	601502 	2.25412 	627.637 	-3.54963e-14 	3.54963e-14
0.241464 	614427 	2.33603 	632.058 	-7.12682e-15 	7.12682e-15
0.242464 	626331 	2.41811 	637.729 	-4.34953e-14 	4.34953e-14
0.243464 	640191 	2.50494 	642.421 	-1.62368e-14 	1.62368e-14
0.244464 	653293 	2.5924 	648.067 	-2.80723e-14 	2.80723e-14
0.245463 	668069 	2.68413 	652.987 	5.47076e-15 	-5.47076e-15
0.246463 	682435 	2.77705 	658.561 	6.83407e-15 	-6.83407e-15
0.247463 	698207 	2.87391 	663.79 	-2.04342e-14 	2.04342e-14
0.248463 	714235 	2.97309 	669.368 	1.37039e-14 	-1.37039e-14
0.249463 	731266 	3.07584 	674.931 	-4.41061e-15 	4.41061e-15
0.250463 	748926 	3.18151 	680.624 	-6.00976e-15 	6.00976e-15
0.251462 	767397 	3.29037 	686.377 	-3.1016e-15 	3.1016e-15
0.252462 	786730 	3.4025 	692.245 	5.13325e-16 	-5.13325e-16
0.253462 	807346 	3.51881 	698.378 	0 	5.33604e-35
0.254462 	830590 	3.64305 	705.381 	0 	-3.57004e-35
0.255462 	859925 	3.78791 	714.98 	-9.28181e-16 	9.28181e-16
0.256462 	885448 	3.91799 	721.975 	-1.37191e-15 	1.37191e-15
0.257462 	890547 	3.97778 	720.611 	-8.37433e-15 	8.37433e-15
0.258461 	867761 	3.95805 	706.607 	-1.0328e-14 	1.0328e-14
0.259461 	760416 	3.66464 	649.444 	-9.88312e-15 	9.88312e-15
0.260461 	442262 	2.56014 	446.333 	-5.43025e-15 	5.43025e-15
0.261461 	145962 	1.39666 	99.6153 	-2.78613e-16 	2.78613e-16
0.262461 	103200 	1.18326 	8.29964 	3.84046e-15 	-3.84046e-15
0.263461 	100197 	1.16256 	0.517116 	1.05965e-14 	-1.05965e-14
0.26446 	100010 	1.1611 	0.031515 	2.35189e-14 	-2.35189e-14
0.26546 	99998.3 	1.16101 	0.00191395 	2.28696e-14 	-2.28696e-14
0.26646 	99997.6 	1.161 	0.00011584 	2.33134e-14 	-2.33134e-14
0.26746 	99997.6 	1.161 	6.98456e-06 	1.66227e-14 	-1.66227e-14
0.26846 	99997.6 	1.161 	4.19485e-07 	1.10425e-14 	-1.10425e-14
0.26946 	99997.6 	1.161 	2.50935e-08 	6.18595e-15 	-6.18595e-15
0.27046 	99997.6 	1.161 	1.49234e-09 	2.24757e-15 	-2.24757e-15
0.271459 	99997.6 	1.161 	1.16217e-10 	0 	0
0.272459 	99997.6 	1.161 	1.16582e-12 	-1.89124e-17 	1.89124e-17
0.273459 	99997.6 	1.161 	-2.05698e-11 	-3.06084e-15 	3.06084e-15
0.274459 	99997.6 	1.161 	-7.27167e-12 	-9.09109e-15 	9.09109e-15
0.275459 	99997.6 	1.161 	-1.23924e-11 	-1.93293e-14 	1.93293e-14
0.276459 	99997.6 	1.161 	2.26244e-11 	-8.57402e-15 	8.57402e-15
0.277458 	99997.6 	1.161 	3.94549e-11 	-2.92675e-15 	2.92675e-15
0.278458 	99997.6 	1.161 	4.7359e-11 	0 	0
0.279458 	99997.6 	1.161 	3.75827e-11 	7.53668e-16 	-7.53668e-16
0.280458 	99997.6 	1.161 	-1.74336e-12 	4.89122e-15 	-4.89122e-15
0.281458 	99997.6 	1.161 	-2.14509e-11 	8.43416e-15 	-8.43416e-15
0.282458 	99997.6 	1.161 	-1.52866e-11 	1.23667e-14 	-1.23667e-14
0.283457 	99997.6 	1.161 	1.98737e-12 	1.87285e-15 	-1.87285e-15
0.284457 	99997.6 	1.161 	-1.95609e-11 	-7.94584e-15 	7.94584e-15
0.285457 	99997.6 	1.161 	2.22544e-11 	-7.29802e-15 	7.29802e-15
0.286457 	99997.6 	1.161 	5.12223e-11 	-5.64569e-15 	5.64569e-15
0.287457 	99997.6 	1.161 	2.3137e-11 	-5.68557e-15 	5.68557e-15
0.288457 	99997.6 	1.161 	-3.6013e-11 	-9.22614e-15 	9.22614e-15
0.289457 	99997.6 	1.161 	-8.81835e-11 	-2.56393e-15 	2.56393e-15
0.290456 	99997.6 	1.161 	-1.13339e-10 	0 	0
0.291456 	99997.6 	1.161 	-8.07629e-11 	-6.95139e-19 	6.95139e-19
0.292456 	99997.6 	1.161 	-4.1724e-11 	-1.19754e-14 	1.19754e-14
0.293456 	99997.6 	1.161 	3.43365e-11 	-1.05313e-15 	1.05313e-15
0.294456 	99997.6 	1.161 	2.33545e-11 	1.22327e-15 	-1.22327e-15
0.295456 	99997.6 	1.161 	2.18472e-11 	4.58556e-15 	-4.58556e-15
0.296455 	99997.6 	1.161 	4.36342e-11 	-2.39892e-15 	2.39892e-15
0.297455 	99997.6 	1.161 	7.01644e-11 	-2.23913e-16 	2.23913e-16
0.298455 	99997.6 	1.161 	4.57683e-11 	0 	0
0.299455 	99997.6 	1.161 	2.84226e-11 	-3.52363e-15 	3.52363e-15
0.300455 	99997.6 	1.161 	6.27031e-13 	-7.13907e-15 	7.13907e-15
0.301455 	99997.6 	1.161 	-3.5301e-11 	-3.94678e-15 	3.94678e-15
0.302455 	99997.6 	1.161 	-2.0545e-11 	-6.29186e-15 	6.29186e-15
0.303454 	99997.6 	1.161 	-5.39661e-12 	0 	0
0.304454 	99997.6 	1.161 	1.73297e-11 	3.40781e-15 	-3.40781e-15
0.305454 	99997.6 	1.161 	4.74488e-11 	0 	0
0.306454 	99997.6 	1.161 	3.05862e-11 	0 	0
0.307454 	99997.6 	1.161 	1.55794e-11 	-4.00242e-15 	4.00242e-15
0.308454 	99997.6 	1.161 	5.3599e-12 	-1.43892e-14 	1.43892e-14
0.309453 	99997.6 	1.161 	3.30982e-13 	-1.38424e-14 	1.38424e-14
0.310453 	99997.6 	1.161 	6.64053e-11 	-3.88066e-15 	3.88066e-15
0.311453 	99997.6 	1.161 	1.09973e-10 	0 	0
0.312453 	99997.6 	1.161 	6.57229e-11 	0 	0
0.313453 	99997.6 	1.161 	-2.79337e-11 	0 	0
0.314453 	99997.6 	1.161 	-9.28659e-11 	4.45999e-15 	-4.45999e-15
0.315453 	99997.6 	1.161 	-1.1294e-10 	1.88186e-15 	-1.88186e-15
0.316452 	99997.6 	1.161 	-7.91243e-11 	-2.20032e-16 	2.20032e-16
0.317452 	99997.6 	1.161 	-7.2937e-11 	-1.31084e-14 	1.31084e-14
0.318452 	99997.6 	1.161 	-7.34905e-11 	-4.67986e-14 	4.67986e-14
0.319452 	99997.6 	1.161 	-4.27479e-11 	-5.66797e-14 	5.66797e-14
0.320452 	99997.6 	1.161 	-4.52251e-11 	-6.90092e-14 	6.90092e-14
0.321452 	99997.6 	1.161 	-9.05096e-11 	-7.3941e-14 	7.3941e-14
0.322451 	99997.6 	1.161 	1.04565e-10 	-4.57232e-14 	4.57232e-14
0.323451 	99997.6 	1.161 	1.24245e-10 	-5.19562e-14 	5.19562e-14
0.324451 	99997.6 	1.161 	1.00957e-10 	-5.20166e-14 	5.20166e-14
0.325451 	99997.6 	1.161 	-8.79066e-11 	-1.75497e-14 	1.75497e-14
0.326451 	99997.6 	1.161 	-5.15703e-11 	-1.08713e-14 	1.08713e-14
0.327451 	99997.6 	1.161 	-3.05667e-11 	-1.82853e-15 	1.82853e-15
0.328451 	99997.6 	1.161 	-2.68192e-11 	5.21559e-15 	-5.21559e-15
0.32945 	99997.6 	1.161 	2.29315e-12 	2.95537e-16 	-2.95537e-16
0.33045 	99997.6 	1.161 	1.71756e-11 	0 	0
0.33145 	99997.6 	1.161 	-2.2927e-11 	-3.52704e-16 	3.52704e-16
0.33245 	99997.6 	1.161 	1.907e-12 	-4.62886e-15 	4.62886e-15
0.33345 	99997.6 	1.161 	3.10125e-11 	-9.25697e-15 	9.25697e-15
0.33445 	99997.6 	1.161 	2.36358e-11 	-9.77031e-15 	9.77031e-15
0.33545 	99997.6 	1.161 	3.04542e-11 	-2.94274e-15 	2.94274e-15
0.336449 	99997.6 	1.161 	3.52885e-11 	0 	0
0.337449 	99997.6 	1.161 	4.12804e-11 	0 	0
0.338449 	99997.6 	1.161 	5.31842e-11 	0 	0
0.339449 	99997.6 	1.161 	3.88802e-11 	0 	0
0.340449 	99997.6 	1.161 	-4.85308e-12 	-9.92158e-18 	9.92158e-18
0.341449 	99997.6 	1.161 	-1.80136e-11 	-4.19518e-15 	4.19518e-15
0.342448 	99997.6 	1.161 	-2.47289e-11 	0 	0
0.343448 	99997.6 	1.161 	-2.57805e-11 	5.6143e-16 	-5.6143e-16
0.344448 	99997.6 	1.161 	-5.42404e-12 	3.67816e-15 	-3.67816e-15
0.345448 	99997.6 	1.161 	1.5981e-11 	2.27762e-15 	-2.27762e-15
0.346448 	99997.6 	1.161 	2.67198e-11 	2.82634e-15 	-2.82634e-15
0.347448 	99997.6 	1.161 	2.29893e-11 	-3.86626e-15 	3.86626e-15
0.348448 	99997.6 	1.161 	-1.66111e-11 	-1.24532e-14 	1.24532e-14
0.349447 	99997.6 	1.161 	-3.2179e-11 	-1.42399e-14 	1.42399e-14
0.350447 	99997.6 	1.161 	-2.13358e-11 	-1.57479e-14 	1.57479e-14
0.351447 	99997.6 	1.161 	-2.27759e-11 	-1.35779e-14 	1.35779e-14
0.352447 	99997.6 	1.161 	-1.67082e-11 	-6.51063e-15 	6.51063e-15
0.353447 	99997.6 	1.161 	1.39084e-11 	0 	0
0.354447 	99997.6 	1.161 	7.37133e-13 	8.95263e-16 	-8.95263e-16
0.355446 	99997.6 	1.161 	-4.28071e-14 	6.21912e-16 	-6.21912e-16
0.356446 	99997.6 	1.161 	-1.6118e-11 	-6.7915e-15 	6.7915e-15
0.357446 	99997.6 	1.161 	-2.67292e-11 	-1.6399e-14 	1.6399e-14
0.358446 	99997.6 	1.161 	-2.58428e-12 	-1.96949e-14 	1.96949e-14
0.359446 	99997.6 	1.161 	2.78618e-11 	-1.94652e-14 	1.94652e-14
0.360446 	99997.6 	1.161 	2.72605e-11 	-1.70176e-14 	1.70176e-14
0.361446 	99997.6 	1.161 	1.32364e-11 	-1.17621e-14 	1.17621e-14
0.362445 	99997.6 	1.161 	3.10208e-11 	-8.66935e-15 	8.66935e-15
0.363445 	99997.6 	1.161 	3.79083e-11 	-8.13698e-15 	8.13698e-15
0.364445 	99997.6 	1.161 	1.2228e-11 	-4.45963e-15 	4.45963e-15
0.365445 	99997.6 	1.161 	1.92335e-11 	-4.19628e-15 	4.19628e-15
0.366445 	99997.6 	1.161 	9.86996e-12 	-5.59123e-16 	5.59123e-16
0.367445 	99997.6 	1.161 	-3.01402e-11 	2.77182e-15 	-2.77182e-15
0.368444 	99997.6 	1.161 	-3.82901e-11 	0 	0
0.369444 	99997.6 	1.161 	-3.50347e-11 	0 	0
0.370444 	99997.6 	1.161 	-1.85244e-11 	-3.87964e-15 	3.87964e-15
0.371444 	99997.6 	1.161 	-1.26416e-11 	-1.63144e-14 	1.63144e-14
0.372444 	99997.6 	1.161 	-2.40862e-11 	-1.92371e-14 	1.92371e-14
0.373444 	99997.6 	1.161 	-6.96341e-12 	-2.34494e-14 	2.34494e-14
0.374444 	99997.6 	1.161 	5.5087e-12 	-2.52274e-14 	2.52274e-14
0.375443 	99997.6 	1.161 	-1.73281e-11 	-2.25072e-14 	2.25072e-14
0.376443 	99997.6 	1.161 	1.94454e-11 	-7.42124e-15 	7.42124e-15
0.377443 	99997.6 	1.161 	3.30105e-11 	-2.79693e-15 	2.79693e-15
0.378443 	99997.6 	1.161 	1.82636e-11 	0 	0
0.379443 	99997.6 	1.161 	-4.53026e-11 	3.80691e-15 	-3.80691e-15
0.380443 	99997.6 	1.161 	-6.1416e-11 	1.33235e-15 	-1.33235e-15
0.381442 	99997.6 	1.161 	-4.67956e-11 	3.43788e-15 	-3.43788e-15
0.382442 	99997.6 	1.161 	-8.22328e-12 	1.68418e-16 	-1.68418e-16
0.383442 	99997.6 	1.161 	3.04413e-11 	0 	0
0.384442 	99997.6 	1.161 	-2.73411e-11 	-4.65629e-15 	4.65629e-15
0.385442 	99997.6 	1.161 	-2.50147e-11 	0 	0
0.386442 	99997.6 	1.161 	-6.05601e-12 	0 	0
0.387442 	99997.6 	1.161 	1.43592e-11 	1.28673e-15 	-1.28673e-15
0.388441 	99997.6 	1.161 	7.25791e-11 	7.61639e-15 	-7.61639e-15
0.389441 	99997.6 	1.161 	9.96782e-11 	8.19825e-15 	-8.19825e-15
0.390441 	99997.6 	1.161 	7.08175e-11 	4.15892e-15 	-4.15892e-15
0.391441 	99997.6 	1.161 	4.13493e-11 	1.55137e-16 	-1.55137e-16
0.392441 	99997.6 	1.161 	3.66425e-11 	0 	0
0.393441 	99997.6 	1.161 	-3.06853e-11 	4.44588e-15 	-4.44588e-15
0.39444 	99997.6 	1.161 	-1.15493e-11 	7.47695e-16 	-7.47695e-16
0.39544 	99997.6 	1.161 	-1.48277e-11 	0 	0
0.39644 	99997.6 	1.161 	-4.49739e-11 	0 	0
0.39744 	99997.6 	1.161 	-2.85851e-11 	0 	0
0.39844 	99997.6 	1.161 	3.73203e-11 	0 	0
0.39944 	99997.6 	1.161 	5.22161e-11 	0 	0
0.40044 	99997.6 	1.161 	-7.42039e-11 	0 	0
0.401439 	99997.6 	1.161 	-8.94024e-11 	3.08153e-15 	-3.08153e-15
0.402439 	99997.6 	1.161 	9.14345e-11 	1.21897e-14 	-1.21897e-14
0.403439 	99997.6 	1.161 	1.32179e-10 	2.03212e-14 	-2.03212e-14
0.404439 	99997.6 	1.161 	8.40641e-11 	2.92301e-14 	-2.92301e-14
0.405439 	99997.6 	1.161 	2.99188e-11 	3.71195e-14 	-3.71195e-14
0.406439 	99997.6 	1.161 	1.35074e-11 	3.68431e-14 	-3.68431e-14
0.407438 	99997.6 	1.161 	-3.48987e-11 	2.01803e-14 	-2.01803e-14
0.408438 	99997.6 	1.161 	-7.23874e-11 	9.06166e-15 	-9.06166e-15
0.409438 	99997.6 	1.161 	-9.0342e-11 	1.64204e-15 	-1.64204e-15
0.410438 	99997.6 	1.161 	-9.11667e-11 	0 	0
0.411438 	99997.6 	1.161 	-8.26433e-11 	0 	0
0.412438 	99997.6 	1.161 	-5.05047e-11 	0 	0
0.413438 	99997.6 	1.161 	-7.62191e-12 	0 	0
0.414437 	99997.6 	1.161 	-2.86782e-11 	0 	0
0.415437 	99997.6 	1.161 	-1.7445e-11 	0 	0
0.416437 	99997.6 	1.161 	3.08232e-11 	0 	0
0.417437 	99997.6 	1.161 	3.14456e-11 	-1.29453e-16 	1.29453e-16
0.418437 	99997.6 	1.161 	-6.41876e-13 	-1.21108e-15 	1.21108e-15
0.419437 	99997.6 	1.161 	-1.66483e-11 	1.78794e-15 	-1.78794e-15
0.420436 	99997.6 	1.161 	-2.49467e-11 	0 	0
0.421436 	99997.6 	1.161 	-2.05955e-11 	-3.36165e-15 	3.36165e-15
0.422436 	99997.6 	1.161 	-2.65424e-12 	-7.2062e-15 	7.2062e-15
0.423436 	99997.6 	1.161 	2.86466e-11 	-7.98697e-15 	7.98697e-15
0.424436 	99997.6 	1.161 	4.74967e-11 	-1.32092e-14 	1.32092e-14
0.425436 	99997.6 	1.161 	-5.2673e-11 	-1.277e-14 	1.277e-14
0.426436 	99997.6 	1.161 	-6.54441e-11 	-1.7882e-14 	1.7882e-14
0.427435 	99997.6 	1.161 	7.33943e-11 	-4.42672e-15 	4.42672e-15
0.428435 	99997.6 	1.161 	9.48633e-11 	-3.90305e-15 	3.90305e-15
0.429435 	99997.6 	1.161 	6.33789e-11 	3.25498e-16 	-3.25498e-16
0.430435 	99997.6 	1.161 	2.96816e-11 	1.3425e-15 	-1.3425e-15
0.431435 	99997.6 	1.161 	2.11901e-11 	3.3206e-15 	-3.3206e-15
0.432435 	99997.6 	1.161 	2.273e-11 	1.88313e-15 	-1.88313e-15
0.433434 	99997.6 	1.161 	5.28267e-12 	2.87763e-15 	-2.87763e-15
0.434434 	99997.6 	1.161 	-2.35708e-11 	8.49637e-16 	-8.49637e-16
0.435434 	99997.6 	1.161 	2.96162e-11 	7.47077e-16 	-7.47077e-16
0.436434 	99997.6 	1.161 	4.47158e-11 	-2.07703e-15 	2.07703e-15
0.437434 	99997.6 	1.161 	4.2848e-11 	-2.07253e-15 	2.07253e-15
0.438434 	99997.6 	1.161 	2.09981e-11 	-4.02665e-15 	4.02665e-15
0.439434 	99997.6 	1.161 	-1.54694e-11 	-1.00276e-14 	1.00276e-14
0.440433 	99997.6 	1.161 	-1.95544e-11 	-1.53517e-14 	1.53517e-14
0.441433 	99997.6 	1.161 	1.13339e-12 	-1.38073e-14 	1.38073e-14
0.442433 	99997.6 	1.161 	-5.68257e-11 	-2.98791e-15 	2.98791e-15
0.443433 	99997.6 	1.161 	-6.80265e-11 	1.5427e-14 	-1.5427e-14
0.444433 	99997.6 	1.161 	-5.62028e-11 	1.77209e-14 	-1.77209e-14
0.445433 	99997.6 	1.161 	-1.07126e-10 	1.31556e-14 	-1.31556e-14
0.446433 	99997.6 	1.161 	-9.17662e-11 	1.00953e-14 	-1.00953e-14
0.447432 	99997.6 	1.161 	8.27479e-11 	7.16585e-15 	-7.16585e-15
0.448432 	99997.6 	1.161 	5.65768e-11 	9.02789e-15 	-9.02789e-15
0.449432 	99997.6 	1.161 	-4.71833e-11 	1.4278e-14 	-1.4278e-14
0.450432 	99997.6 	1.161 	-2.14409e-11 	9.05241e-15 	-9.05241e-15
0.451432 	99997.6 	1.161 	1.54135e-11 	-1.98177e-15 	1.98177e-15
0.452432 	99997.6 	1.161 	7.45287e-12 	-8.12157e-15 	8.12157e-15
0.453431 	99997.6 	1.161 	1.12458e-11 	-7.16475e-15 	7.16475e-15
0.454431 	99997.6 	1.161 	9.79959e-13 	-7.99622e-15 	7.99622e-15
0.455431 	99997.6 	1.161 	-3.626e-12 	-1.33152e-14 	1.33152e-14
0.456431 	99997.6 	1.161 	2.46789e-11 	-1.81881e-14 	1.81881e-14
0.457431 	99997.6 	1.161 	2.14096e-11 	-2.31748e-14 	2.31748e-14
0.458431 	99997.6 	1.161 	2.38766e-11 	-3.02621e-14 	3.02621e-14
0.459431 	99997.6 	1.161 	-2.23608e-12 	-3.47038e-14 	3.47038e-14
0.46043 	99997.6 	1.161 	-1.70111e-11 	-3.5722e-14 	3.5722e-14
0.46143 	99997.6 	1.161 	-9.67936e-12 	-3.16378e-14 	3.16378e-14
0.46243 	99997.6 	1.161 	6.76588e-12 	-2.02764e-14 	2.02764e-14
0.46343 	99997.6 	1.161 	2.68126e-11 	-1.41191e-14 	1.41191e-14
0.46443 	99997.6 	1.161 	1.79038e-11 	-8.60344e-15 	8.60344e-15
0.46543 	99997.6 	1.161 	1.02967e-11 	-2.63831e-15 	2.63831e-15
0.466429 	99997.6 	1.161 	1.65956e-11 	-3.70679e-16 	3.70679e-16
0.467429 	99997.6 	1.161 	1.61273e-11 	0 	0
0.468429 	99997.6 	1.161 	-1.56091e-11 	0 	0
0.469429 	99997.6 	1.161 	-4.39012e-11 	0 	0
0.470429 	99997.6 	1.161 	-2.17693e-11 	0 	0
0.471429 	99997.6 	1.161 	4.46566e-11 	1.54762e-15 	-1.54762e-15
0.472429 	99997.6 	1.161 	3.28143e-11 	3.31905e-15 	-3.31905e-15
0.473428 	99997.6 	1.161 	2.42984e-11 	-6.20455e-15 	6.20455e-15
0.474428 	99997.6 	1.161 	3.49892e-11 	-1.28488e-14 	1.28488e-14
0.475428 	99997.6 	1.161 	3.11419e-11 	-1.40609e-14 	1.40609e-14
0.476428 	99997.6 	1.161 	5.81619e-12 	-1.70694e-14 	1.70694e-14
0.477428 	99997.6 	1.161 	-2.73373e-11 	-1.44685e-14 	1.44685e-14
0.478428 	99997.6 	1.161 	-3.25386e-11 	6.61383e-15 	-6.61383e-15