/*--------------------------------*- C++ -*----------------------------------*\
| =========                 |                                                 |
| \\      /  F ield         | OpenFOAM: The Open Source CFD Toolbox           |
|  \\    /   O peration     | Version:  2212                                  |
|   \\  /    A nd           | Website:  www.openfoam.com                      |
|    \\/     M anipulation  |                                                 |
\*---------------------------------------------------------------------------*/
FoamFile
{
    version     2.0;
    format      ascii;
    arch        "LSB;label=32;scalar=64";
    class       volScalarField;
    location    "0.001";
    object      p;
}
// * * * * * * * * * * * * * * * * * * * * * * * * * * * * * * * * * * * * * //

dimensions      [1 -1 -2 0 0 0 0];

internalField   nonuniform List<scalar> 
100
(
99999.3
99999.3
99999.3
99999.3
99999.3
99999.3
99999.3
99999.3
99999.3
99999.3
99999.3
99999.3
99999.3
99999.3
99999.3
99999.3
99999.3
99999.3
99999.3
99999.3
99999.3
99999.3
99999.3
99999.3
99999.3
99999.3
99999.3
99999.3
99999.3
99999.3
99999.3
99999.3
99999.3
99999.3
99999.3
99999.3
99999.3
99999.2
99998.3
99992.9
99965.1
99845.7
99426.4
98228.2
95458.7
90269.2
82286.3
71978.1
60510.8
49336.1
39768.2
32948.8
29442.7
27365.9
24318.3
19552.5
14565.1
11470.2
10341.8
10064.5
10010.4
10001.4
10000.1
9999.95
9999.93
9999.93
9999.93
9999.93
9999.93
9999.93
9999.93
9999.93
9999.93
9999.93
9999.93
9999.93
9999.93
9999.93
9999.93
9999.93
9999.93
9999.93
9999.93
9999.93
9999.93
9999.93
9999.93
9999.93
9999.93
9999.93
9999.93
9999.93
9999.93
9999.93
9999.93
9999.93
9999.93
9999.93
9999.93
9999.93
)
;

boundaryField
{
    sides
    {
        type            zeroGradient;
    }
    empty
    {
        type            empty;
    }
}


// ************************************************************************* //
