/*--------------------------------*- C++ -*----------------------------------*\
| =========                 |                                                 |
| \\      /  F ield         | OpenFOAM: The Open Source CFD Toolbox           |
|  \\    /   O peration     | Version:  2312                                  |
|   \\  /    A nd           | Website:  www.openfoam.com                      |
|    \\/     M anipulation  |                                                 |
\*---------------------------------------------------------------------------*/
FoamFile
{
    version     2.0;
    format      ascii;
    arch        "LSB;label=32;scalar=64";
    class       volScalarField;
    location    "0.001";
    object      p;
}
// * * * * * * * * * * * * * * * * * * * * * * * * * * * * * * * * * * * * * //

dimensions      [1 -1 -2 0 0 0 0];

internalField   nonuniform List<scalar> 
100
(
413711
413711
413711
413711
413711
413711
413711
413711
413711
413711
413711
413711
413711
413711
413711
413711
413711
413711
413711
413711
413711
413711
413711
413711
413711
413711
413711
413711
413711
413711
413710
413704
413685
413619
413422
412896
411644
408988
403973
395531
382797
365418
343703
318524
291082
262660
234458
207529
182790
161088
143268
130129
121974
118132
116653
116126
115867
115492
114405
111081
102877
87950.4
69224.9
53827.8
45634.2
42592.3
41686.4
41446.6
41387.9
41374.6
41371.8
41371.3
41371.2
41371.1
41371.1
41371.1
41371.1
41371.1
41371.1
41371.1
41371.1
41371.1
41371.1
41371.1
41371.1
41371.1
41371.1
41371.1
41371.1
41371.1
41371.1
41371.1
41371.1
41371.1
41371.1
41371.1
41371.1
41371.1
41371.1
41371.1
)
;

boundaryField
{
    sides
    {
        type            zeroGradient;
    }
    empty
    {
        type            empty;
    }
}


// ************************************************************************* //
