/*--------------------------------*- C++ -*----------------------------------*\
| =========                 |                                                 |
| \\      /  F ield         | OpenFOAM: The Open Source CFD Toolbox           |
|  \\    /   O peration     | Version:  2312                                  |
|   \\  /    A nd           | Website:  www.openfoam.com                      |
|    \\/     M anipulation  |                                                 |
\*---------------------------------------------------------------------------*/
FoamFile
{
    version     2.0;
    format      ascii;
    arch        "LSB;label=32;scalar=64";
    class       volScalarField;
    location    "0.001";
    object      thermo:e;
}
// * * * * * * * * * * * * * * * * * * * * * * * * * * * * * * * * * * * * * //

dimensions      [0 2 -2 0 0 0 0];

internalField   nonuniform List<scalar> 
100
(
534450
534450
534450
534450
534450
534450
534450
534450
534450
534450
534450
534450
534450
534450
534450
534450
534450
534450
534450
534450
534450
534450
534450
534450
534450
534450
534450
534450
534450
534450
534449
534446
534436
534402
534300
534029
533383
532013
529424
525052
518408
509218
497506
483560
467860
450993
433609
416431
400335
386552
377033
375018
385386
412333
456357
515588
585127
656613
719077
760279
768312
735569
669107
599482
557160
540887
536093
534841
534537
534468
534453
534451
534450
534450
534450
534450
534450
534450
534450
534450
534450
534450
534450
534450
534450
534450
534450
534450
534450
534450
534450
534450
534450
534450
534450
534450
534450
534450
534450
534450
)
;

boundaryField
{
    sides
    {
        type            zeroGradient;
    }
    empty
    {
        type            empty;
    }
}


// ************************************************************************* //
