/*--------------------------------*- C++ -*----------------------------------*\
| =========                 |                                                 |
| \\      /  F ield         | OpenFOAM: The Open Source CFD Toolbox           |
|  \\    /   O peration     | Version:  2312                                  |
|   \\  /    A nd           | Website:  www.openfoam.com                      |
|    \\/     M anipulation  |                                                 |
\*---------------------------------------------------------------------------*/
FoamFile
{
    version     2.0;
    format      ascii;
    arch        "LSB;label=32;scalar=64";
    class       volVectorField;
    location    "0.001";
    object      U;
}
// * * * * * * * * * * * * * * * * * * * * * * * * * * * * * * * * * * * * * //

dimensions      [0 1 -1 0 0 0 0];

internalField   nonuniform List<vector> 
100
(
(-8.14444e-14 0 0)
(-1.29442e-13 0 0)
(-1.3171e-13 0 0)
(-1.57118e-13 0 0)
(-1.63689e-13 0 0)
(-1.07058e-13 0 0)
(-5.27052e-14 0 0)
(-1.35745e-13 0 0)
(-1.31585e-13 0 0)
(-7.88322e-14 0 0)
(-2.44013e-14 0 0)
(-5.53983e-14 0 0)
(-6.78531e-14 0 0)
(-1.23703e-13 0 0)
(-2.02163e-14 0 0)
(1.59029e-14 0 0)
(-5.46778e-14 0 0)
(-6.326e-14 0 0)
(-1.11224e-13 0 0)
(1.40012e-13 0 0)
(3.61223e-12 0 0)
(4.4292e-11 0 0)
(4.74838e-10 0 0)
(4.55428e-09 0 0)
(3.92556e-08 0 0)
(3.04681e-07 0 0)
(2.13265e-06 0 0)
(1.34789e-05 0 0)
(7.69932e-05 0 0)
(0.000397728 0 0)
(0.00185863 0 0)
(0.00785721 0 0)
(0.0300386 0 0)
(0.103791 0 0)
(0.323865 0 0)
(0.911882 0 0)
(2.31587 0 0)
(5.30843 0 0)
(11.0085 0 0)
(20.7508 0 0)
(35.8092 0 0)
(57.0909 0 0)
(84.9551 0 0)
(119.217 0 0)
(159.277 0 0)
(204.268 0 0)
(253.127 0 0)
(304.554 0 0)
(356.817 0 0)
(407.388 0 0)
(452.575 0 0)
(487.971 0 0)
(510.653 0 0)
(522.031 0 0)
(526.983 0 0)
(529.011 0 0)
(529.569 0 0)
(528.492 0 0)
(522.943 0 0)
(504.38 0 0)
(457.453 0 0)
(368.168 0 0)
(243.196 0 0)
(121.636 0 0)
(45.1296 0 0)
(13.4203 0 0)
(3.50765 0 0)
(0.84222 0 0)
(0.187799 0 0)
(0.0388559 0 0)
(0.00743325 0 0)
(0.00130994 0 0)
(0.000211935 0 0)
(3.13825e-05 0 0)
(4.24062e-06 0 0)
(5.21394e-07 0 0)
(5.81589e-08 0 0)
(5.86751e-09 0 0)
(5.33686e-10 0 0)
(4.36324e-11 0 0)
(3.22895e-12 0 0)
(2.9668e-13 0 0)
(8.2295e-14 0 0)
(7.23314e-15 0 0)
(-5.92169e-14 0 0)
(-1.24441e-13 0 0)
(-5.58795e-14 0 0)
(-1.01997e-14 0 0)
(5.93777e-14 0 0)
(-2.68219e-14 0 0)
(-7.24239e-14 0 0)
(-4.61506e-14 0 0)
(1.98453e-14 0 0)
(-4.53959e-15 0 0)
(-7.51186e-14 0 0)
(-7.41107e-14 0 0)
(-2.92099e-14 0 0)
(9.39777e-14 0 0)
(2.3605e-14 0 0)
(-6.78566e-14 0 0)
)
;

boundaryField
{
    sides
    {
        type            zeroGradient;
    }
    empty
    {
        type            empty;
    }
}


// ************************************************************************* //
