/*--------------------------------*- C++ -*----------------------------------*\
| =========                 |                                                 |
| \\      /  F ield         | OpenFOAM: The Open Source CFD Toolbox           |
|  \\    /   O peration     | Version:  2312                                  |
|   \\  /    A nd           | Website:  www.openfoam.com                      |
|    \\/     M anipulation  |                                                 |
\*---------------------------------------------------------------------------*/
FoamFile
{
    version     2.0;
    format      ascii;
    arch        "LSB;label=32;scalar=64";
    class       volVectorField;
    location    "0.001";
    object      U;
}
// * * * * * * * * * * * * * * * * * * * * * * * * * * * * * * * * * * * * * //

dimensions      [0 1 -1 0 0 0 0];

internalField   nonuniform List<vector> 
100
(
(3.10575e-14 0 0)
(7.98405e-14 0 0)
(5.56325e-14 0 0)
(-4.90024e-14 0 0)
(-3.19881e-14 0 0)
(-3.91048e-16 0 0)
(3.95864e-14 0 0)
(6.40606e-14 0 0)
(2.05746e-14 0 0)
(2.0038e-14 0 0)
(2.75995e-14 0 0)
(5.50174e-14 0 0)
(2.06802e-14 0 0)
(-2.78377e-14 0 0)
(1.47652e-15 0 0)
(3.9451e-14 0 0)
(3.37064e-15 0 0)
(-1.64605e-14 0 0)
(-2.78377e-14 0 0)
(3.92147e-14 0 0)
(2.17687e-14 0 0)
(-8.54001e-15 0 0)
(-1.7058e-14 0 0)
(-5.76509e-14 0 0)
(-3.21273e-14 0 0)
(-2.54545e-14 0 0)
(-2.50585e-14 0 0)
(-1.89944e-14 0 0)
(-6.35407e-16 0 0)
(-4.71095e-15 0 0)
(1.59929e-14 0 0)
(3.39266e-12 0 0)
(1.48779e-10 0 0)
(4.44463e-09 0 0)
(9.76824e-08 0 0)
(1.64212e-06 0 0)
(2.16656e-05 0 0)
(0.000228336 0 0)
(0.00194568 0 0)
(0.0135126 0 0)
(0.0768533 0 0)
(0.358831 0 0)
(1.37729 0 0)
(4.3581 0 0)
(11.4554 0 0)
(25.3828 0 0)
(48.4272 0 0)
(81.5019 0 0)
(123.744 0 0)
(172.373 0 0)
(220.759 0 0)
(257.051 0 0)
(272.129 0 0)
(265.596 0 0)
(234.16 0 0)
(172.889 0 0)
(94.4249 0 0)
(33.8265 0 0)
(8.14323 0 0)
(1.50495 0 0)
(0.230519 0 0)
(0.0296973 0 0)
(0.00319656 0 0)
(0.000283779 0 0)
(2.04303e-05 0 0)
(1.16726e-06 0 0)
(5.14235e-08 0 0)
(1.67664e-09 0 0)
(3.79698e-11 0 0)
(6.19645e-13 0 0)
(7.70405e-14 0 0)
(9.1254e-14 0 0)
(4.92221e-14 0 0)
(-1.29835e-14 0 0)
(-4.41541e-14 0 0)
(3.14485e-15 0 0)
(6.77825e-14 0 0)
(1.99698e-14 0 0)
(-3.08809e-14 0 0)
(1.54601e-14 0 0)
(-2.51588e-14 0 0)
(3.45427e-14 0 0)
(1.54715e-14 0 0)
(-4.03155e-14 0 0)
(1.54601e-14 0 0)
(-2.51588e-14 0 0)
(4.39772e-14 0 0)
(6.50863e-15 0 0)
(-3.29172e-14 0 0)
(-4.59317e-14 0 0)
(-3.50699e-14 0 0)
(1.78409e-14 0 0)
(6.16335e-14 0 0)
(9.05207e-14 0 0)
(4.04851e-14 0 0)
(1.66112e-14 0 0)
(-2.52767e-14 0 0)
(1.13159e-14 0 0)
(1.00427e-13 0 0)
(9.78471e-14 0 0)
)
;

boundaryField
{
    sides
    {
        type            zeroGradient;
    }
    empty
    {
        type            empty;
    }
}


// ************************************************************************* //
