/*--------------------------------*- C++ -*----------------------------------*\
| =========                 |                                                 |
| \\      /  F ield         | OpenFOAM: The Open Source CFD Toolbox           |
|  \\    /   O peration     | Version:  2212                                  |
|   \\  /    A nd           | Website:  www.openfoam.com                      |
|    \\/     M anipulation  |                                                 |
\*---------------------------------------------------------------------------*/
FoamFile
{
    version     2.0;
    format      ascii;
    arch        "LSB;label=32;scalar=64";
    class       volVectorField;
    location    "0.001";
    object      U;
}
// * * * * * * * * * * * * * * * * * * * * * * * * * * * * * * * * * * * * * //

dimensions      [0 1 -1 0 0 0 0];

internalField   nonuniform List<vector> 
100
(
(-2.46241e-14 0 0)
(-8.13122e-14 0 0)
(-5.94779e-14 0 0)
(-8.55991e-14 0 0)
(-5.3944e-14 0 0)
(5.59777e-14 0 0)
(2.96219e-14 0 0)
(-3.20956e-14 0 0)
(-2.8806e-14 0 0)
(2.30274e-14 0 0)
(9.33367e-14 0 0)
(1.2973e-13 0 0)
(7.89564e-14 0 0)
(5.77367e-14 0 0)
(2.1129e-14 0 0)
(-1.37117e-14 0 0)
(-3.15172e-14 0 0)
(-3.98952e-16 0 0)
(4.11178e-14 0 0)
(5.56895e-15 0 0)
(-9.47548e-15 0 0)
(-3.5706e-14 0 0)
(-1.50518e-15 0 0)
(-1.0027e-14 0 0)
(-1.0864e-13 0 0)
(-5.54396e-14 0 0)
(4.55377e-14 0 0)
(8.24014e-14 0 0)
(3.14302e-14 0 0)
(4.44542e-14 0 0)
(1.57042e-12 0 0)
(4.07399e-11 0 0)
(8.89645e-10 0 0)
(1.62854e-08 0 0)
(2.50274e-07 0 0)
(3.23154e-06 0 0)
(3.50741e-05 0 0)
(0.000319998 0 0)
(0.00245263 0 0)
(0.0157703 0 0)
(0.0848767 0 0)
(0.381239 0 0)
(1.4252 0 0)
(4.43261 0 0)
(11.5277 0 0)
(25.3887 0 0)
(48.2948 0 0)
(81.203 0 0)
(123.333 0 0)
(171.982 0 0)
(220.476 0 0)
(256.769 0 0)
(271.625 0 0)
(264.858 0 0)
(233.352 0 0)
(172.237 0 0)
(94.1472 0 0)
(33.9272 0 0)
(8.32068 0 0)
(1.59575 0 0)
(0.259205 0 0)
(0.036313 0 0)
(0.00438051 0 0)
(0.000452711 0 0)
(3.98853e-05 0 0)
(2.98343e-06 0 0)
(1.88837e-07 0 0)
(1.00867e-08 0 0)
(4.53683e-10 0 0)
(1.72046e-11 0 0)
(6.25752e-13 0 0)
(1.8459e-14 0 0)
(-6.37588e-14 0 0)
(-4.4788e-14 0 0)
(5.51133e-14 0 0)
(2.38115e-14 0 0)
(-1.79449e-14 0 0)
(1.44072e-14 0 0)
(-9.31464e-17 0 0)
(2.88333e-14 0 0)
(2.44165e-14 0 0)
(-7.61923e-15 0 0)
(2.71704e-14 0 0)
(-2.08668e-14 0 0)
(-1.27141e-14 0 0)
(2.44165e-14 0 0)
(-7.61923e-15 0 0)
(-4.78104e-14 0 0)
(-5.43246e-14 0 0)
(1.43694e-14 0 0)
(2.79562e-14 0 0)
(5.30109e-15 0 0)
(4.28948e-14 0 0)
(8.54004e-15 0 0)
(-2.63922e-14 0 0)
(-2.31219e-14 0 0)
(-4.43645e-15 0 0)
(4.54104e-14 0 0)
(8.54004e-15 0 0)
(-2.63922e-14 0 0)
)
;

boundaryField
{
    sides
    {
        type            zeroGradient;
    }
    empty
    {
        type            empty;
    }
}


// ************************************************************************* //
