/*--------------------------------*- C++ -*----------------------------------*\
| =========                 |                                                 |
| \\      /  F ield         | OpenFOAM: The Open Source CFD Toolbox           |
|  \\    /   O peration     | Version:  2312                                  |
|   \\  /    A nd           | Website:  www.openfoam.com                      |
|    \\/     M anipulation  |                                                 |
\*---------------------------------------------------------------------------*/
FoamFile
{
    version     2.0;
    format      ascii;
    arch        "LSB;label=32;scalar=64";
    class       volScalarField;
    location    "0.073";
    object      p;
}
// * * * * * * * * * * * * * * * * * * * * * * * * * * * * * * * * * * * * * //

dimensions      [1 -1 -2 0 0 0 0];

internalField   nonuniform List<scalar> 
100
(
24450.6
25402.4
24322.5
25512.2
24289.2
25535
24299.9
25466.2
24348.1
25323.5
24411
25136.8
24460.2
24935.5
24472.8
24739.7
24438.4
24556.7
24359.1
24384.2
24243.8
24216.5
24103.3
24048.5
23946.5
23877.9
23780.2
23704.9
23609.2
23531.1
23437.3
23359
23267.9
23191.4
23104.1
23030.9
22948.5
22880.1
22803.8
22741.4
22672.3
22616.8
22555.8
22508.5
22457
22419.8
22381.5
22361.2
22348.6
22368.9
22426.2
22566.2
22825.5
23282.9
23986.2
24961.1
26121.1
27330.5
28413.4
29283.1
29898.9
30314.8
30565.6
30724.4
30807.7
30863.6
30885.9
30906.3
30908.6
30917.3
30913.7
30919
30913.7
30918.2
30912.5
30916.8
30910.7
30914.9
30908.2
30912.1
30904.7
30907.8
30899.9
30901.1
30893.6
30891.3
30885.6
30877.1
30875
30856.9
30860.3
30829.1
30839.3
30792.1
30809.6
30745.3
30769.3
30689.7
30718.3
30627.9
)
;

boundaryField
{
    sides
    {
        type            zeroGradient;
    }
    empty
    {
        type            empty;
    }
}


// ************************************************************************* //
