/*--------------------------------*- C++ -*----------------------------------*\
| =========                 |                                                 |
| \\      /  F ield         | OpenFOAM: The Open Source CFD Toolbox           |
|  \\    /   O peration     | Version:  2312                                  |
|   \\  /    A nd           | Website:  www.openfoam.com                      |
|    \\/     M anipulation  |                                                 |
\*---------------------------------------------------------------------------*/
FoamFile
{
    version     2.0;
    format      ascii;
    arch        "LSB;label=32;scalar=64";
    class       volVectorField;
    location    "0.073";
    object      U;
}
// * * * * * * * * * * * * * * * * * * * * * * * * * * * * * * * * * * * * * //

dimensions      [0 1 -1 0 0 0 0];

internalField   nonuniform List<vector> 
100
(
(178.635 0 0)
(181.961 0 0)
(184.003 0 0)
(186.625 0 0)
(188.755 0 0)
(190.933 0 0)
(193.204 0 0)
(194.947 0 0)
(197.304 0 0)
(198.706 0 0)
(201.037 0 0)
(202.232 0 0)
(204.415 0 0)
(205.526 0 0)
(207.478 0 0)
(208.58 0 0)
(210.278 0 0)
(211.39 0 0)
(212.858 0 0)
(213.964 0 0)
(215.246 0 0)
(216.321 0 0)
(217.46 0 0)
(218.481 0 0)
(219.509 0 0)
(220.463 0 0)
(221.399 0 0)
(222.281 0 0)
(223.134 0 0)
(223.942 0 0)
(224.718 0 0)
(225.451 0 0)
(226.151 0 0)
(226.81 0 0)
(227.435 0 0)
(228.02 0 0)
(228.569 0 0)
(229.079 0 0)
(229.553 0 0)
(229.987 0 0)
(230.386 0 0)
(230.745 0 0)
(231.068 0 0)
(231.348 0 0)
(231.587 0 0)
(231.772 0 0)
(231.893 0 0)
(231.915 0 0)
(231.783 0 0)
(231.383 0 0)
(230.523 0 0)
(228.876 0 0)
(225.972 0 0)
(221.275 0 0)
(214.451 0 0)
(205.733 0 0)
(196.055 0 0)
(186.722 0 0)
(178.809 0 0)
(172.814 0 0)
(168.663 0 0)
(165.989 0 0)
(164.358 0 0)
(163.41 0 0)
(162.889 0 0)
(162.627 0 0)
(162.523 0 0)
(162.512 0 0)
(162.559 0 0)
(162.642 0 0)
(162.75 0 0)
(162.872 0 0)
(163.006 0 0)
(163.149 0 0)
(163.299 0 0)
(163.456 0 0)
(163.619 0 0)
(163.789 0 0)
(163.964 0 0)
(164.147 0 0)
(164.337 0 0)
(164.533 0 0)
(164.739 0 0)
(164.95 0 0)
(165.176 0 0)
(165.401 0 0)
(165.651 0 0)
(165.894 0 0)
(166.172 0 0)
(166.437 0 0)
(166.75 0 0)
(167.045 0 0)
(167.397 0 0)
(167.727 0 0)
(168.121 0 0)
(168.493 0 0)
(168.924 0 0)
(169.339 0 0)
(169.796 0 0)
(170.242 0 0)
)
;

boundaryField
{
    sides
    {
        type            mywaveTransmissive;
        gamma           1.4;
        value           nonuniform List<vector> 2((170.257 0 0) (180.922 0 0));
    }
    empty
    {
        type            empty;
    }
}


// ************************************************************************* //
