/*--------------------------------*- C++ -*----------------------------------*\
| =========                 |                                                 |
| \\      /  F ield         | OpenFOAM: The Open Source CFD Toolbox           |
|  \\    /   O peration     | Version:  2312                                  |
|   \\  /    A nd           | Website:  www.openfoam.com                      |
|    \\/     M anipulation  |                                                 |
\*---------------------------------------------------------------------------*/
FoamFile
{
    version     2.0;
    format      ascii;
    arch        "LSB;label=32;scalar=64";
    class       volScalarField;
    location    "1e-05";
    object      T;
}
// * * * * * * * * * * * * * * * * * * * * * * * * * * * * * * * * * * * * * //

dimensions      [0 0 0 1 0 0 0];

internalField   nonuniform List<scalar> 
500
(
1.16402e+07
1.1636e+07
1.16273e+07
1.16132e+07
1.15925e+07
1.15642e+07
1.15269e+07
1.14796e+07
1.14211e+07
1.13502e+07
1.1266e+07
1.11673e+07
1.10532e+07
1.09229e+07
1.07754e+07
1.061e+07
1.0426e+07
1.02229e+07
1.00002e+07
9.75752e+06
9.4947e+06
9.21165e+06
8.90844e+06
8.58535e+06
8.24281e+06
7.88149e+06
7.50223e+06
7.10615e+06
6.69464e+06
6.26918e+06
5.83866e+06
5.41781e+06
5.01454e+06
4.63144e+06
4.26914e+06
3.92754e+06
3.6064e+06
3.30535e+06
3.02392e+06
2.76152e+06
2.51754e+06
2.29124e+06
2.08189e+06
1.8887e+06
1.71085e+06
1.54751e+06
1.39785e+06
1.26104e+06
1.13625e+06
1.02267e+06
919507
825982
741357
664930
596010
533945
478129
427995
383017
342708
306609
274312
245447
219672
196653
176099
157747
141354
126717
113681
102066
91709.2
82453.8
74183.6
66835.4
60289.1
54423.3
49165.7
44499.3
40339.8
36519.8
33277.7
30104
27551.7
24955.8
22894.9
20755.4
19038.5
17295.2
15858.2
14504.2
13309.1
12227.7
11270.8
10399.3
9499.95
8476.95
6943.54
3660.24
466.235
301.174
300.007
300
300
300
300
300
300
300
300
300
300
300
300
300
300
300
300
300
300
300
300
300
300
300
300
300
300
300
300
300
300
300
300
300
300
300
300
300
300
300
300
300
300
300
300
300
300
300
300
300
300
300
300
300
300
300
300
300
300
300
300
300
300
300
300
300
300
300
300
300
300
300
300
300
300
300
300
300
300
300
300
300
300
300
300
300
300
300
300
300
300
300
300
300
300
300
300
300
300
300
300
300
300
300
300
300
300
300
300
300
300
300
300
300
300
300
300
300
300
300
300
300
300
300
300
300
300
300
300
300
300
300
300
300
300
300
300
300
300
300
300
300
300
300
300
300
300
300
300
300
300
300
300
300
300
300
300
300
300
300
300
300
300
300
300
300
300
300
300
300
300
300
300
300
300
300
300
300
300
300
300
300
300
300
300
300
300
300
300
300
300
300
300
300
300
300
300
300
300
300
300
300
300
300
300
300
300
300
300
300
300
300
300
300
300
300
300
300
300
300
300
300
300
300
300
300
300
300
300
300
300
300
300
300
300
300
300
300
300
300
300
300
300
300
300
300
300
300
300
300
300
300
300
300
300
300
300
300
300
300
300
300
300
300
300
300
300
300
300
300
300
300
300
300
300
300
300
300
300
300
300
300
300
300
300
300
300
300
300
300
300
300
300
300
300
300
300
300
300
300
300
300
300
300
300
300
300
300
300
300
300
300
300
300
300
300
300
300
300
300
300
300
300
300
300
300
300
300
300
300
300
300
300
300
300
300
300
300
300
300
300
300
300
300
300
300
300
300
300
300
300
300
300
300
300
300
300
300
300
300
300
300
300
300
300
300
300
300
300
300
300
300
300
300
300
300
300
300
300
300
300
300
300
300
300
300
300
300
300
300
300
300
300
300
300
300
300
300
300
)
;

boundaryField
{
    wedge0
    {
        type            wedge;
    }
    wedge1
    {
        type            wedge;
    }
    wedge2
    {
        type            wedge;
    }
    wedge3
    {
        type            wedge;
    }
    outlet
    {
        type            zeroGradient;
    }
    defaultFaces
    {
        type            empty;
    }
}


// ************************************************************************* //
