/*--------------------------------*- C++ -*----------------------------------*\
| =========                 |                                                 |
| \\      /  F ield         | OpenFOAM: The Open Source CFD Toolbox           |
|  \\    /   O peration     | Version:  2312                                  |
|   \\  /    A nd           | Website:  www.openfoam.com                      |
|    \\/     M anipulation  |                                                 |
\*---------------------------------------------------------------------------*/
FoamFile
{
    version     2.0;
    format      ascii;
    arch        "LSB;label=32;scalar=64";
    class       volScalarField;
    location    "1e-05";
    object      thermo:e;
}
// * * * * * * * * * * * * * * * * * * * * * * * * * * * * * * * * * * * * * //

dimensions      [0 2 -2 0 0 0 0];

internalField   nonuniform List<scalar> 
500
(
8.35418e+09
8.35114e+09
8.34489e+09
8.33476e+09
8.31995e+09
8.29961e+09
8.27288e+09
8.23893e+09
8.19692e+09
8.14607e+09
8.0856e+09
8.01477e+09
7.9329e+09
7.83934e+09
7.73347e+09
7.61476e+09
7.48273e+09
7.33696e+09
7.17713e+09
7.00297e+09
6.81435e+09
6.6112e+09
6.39359e+09
6.1617e+09
5.91587e+09
5.65654e+09
5.38435e+09
5.10008e+09
4.80474e+09
4.49939e+09
4.1904e+09
3.88836e+09
3.59894e+09
3.32399e+09
3.06396e+09
2.81879e+09
2.58832e+09
2.37225e+09
2.17027e+09
1.98195e+09
1.80684e+09
1.64442e+09
1.49417e+09
1.35552e+09
1.22787e+09
1.11065e+09
1.00324e+09
9.05051e+08
8.1549e+08
7.33972e+08
6.5993e+08
5.92807e+08
5.32072e+08
4.77221e+08
4.27756e+08
3.83213e+08
3.43153e+08
3.07172e+08
2.74891e+08
2.45961e+08
2.20053e+08
1.96874e+08
1.76157e+08
1.57659e+08
1.41138e+08
1.26386e+08
1.13215e+08
1.01449e+08
9.09449e+07
8.15888e+07
7.32526e+07
6.58197e+07
5.91771e+07
5.32416e+07
4.79678e+07
4.32695e+07
3.90596e+07
3.52862e+07
3.19371e+07
2.89519e+07
2.62103e+07
2.38834e+07
2.16056e+07
1.97738e+07
1.79107e+07
1.64317e+07
1.48962e+07
1.3664e+07
1.24127e+07
1.13815e+07
1.04097e+07
9.55193e+06
8.77582e+06
8.08906e+06
7.46358e+06
6.81812e+06
6.08391e+06
4.98338e+06
2.62695e+06
334617
216153
215315
215310
215310
215310
215310
215310
215310
215310
215310
215310
215310
215310
215310
215310
215310
215310
215310
215310
215310
215310
215310
215310
215310
215310
215310
215310
215310
215310
215310
215310
215310
215310
215310
215310
215310
215310
215310
215310
215310
215310
215310
215310
215310
215310
215310
215310
215310
215310
215310
215310
215310
215310
215310
215310
215310
215310
215310
215310
215310
215310
215310
215310
215310
215310
215310
215310
215310
215310
215310
215310
215310
215310
215310
215310
215310
215310
215310
215310
215310
215310
215310
215310
215310
215310
215310
215310
215310
215310
215310
215310
215310
215310
215310
215310
215310
215310
215310
215310
215310
215310
215310
215310
215310
215310
215310
215310
215310
215310
215310
215310
215310
215310
215310
215310
215310
215310
215310
215310
215310
215310
215310
215310
215310
215310
215310
215310
215310
215310
215310
215310
215310
215310
215310
215310
215310
215310
215310
215310
215310
215310
215310
215310
215310
215310
215310
215310
215310
215310
215310
215310
215310
215310
215310
215310
215310
215310
215310
215310
215310
215310
215310
215310
215310
215310
215310
215310
215310
215310
215310
215310
215310
215310
215310
215310
215310
215310
215310
215310
215310
215310
215310
215310
215310
215310
215310
215310
215310
215310
215310
215310
215310
215310
215310
215310
215310
215310
215310
215310
215310
215310
215310
215310
215310
215310
215310
215310
215310
215310
215310
215310
215310
215310
215310
215310
215310
215310
215310
215310
215310
215310
215310
215310
215310
215310
215310
215310
215310
215310
215310
215310
215310
215310
215310
215310
215310
215310
215310
215310
215310
215310
215310
215310
215310
215310
215310
215310
215310
215310
215310
215310
215310
215310
215310
215310
215310
215310
215310
215310
215310
215310
215310
215310
215310
215310
215310
215310
215310
215310
215310
215310
215310
215310
215310
215310
215310
215310
215310
215310
215310
215310
215310
215310
215310
215310
215310
215310
215310
215310
215310
215310
215310
215310
215310
215310
215310
215310
215310
215310
215310
215310
215310
215310
215310
215310
215310
215310
215310
215310
215310
215310
215310
215310
215310
215310
215310
215310
215310
215310
215310
215310
215310
215310
215310
215310
215310
215310
215310
215310
215310
215310
215310
215310
215310
215310
215310
215310
215310
215310
215310
215310
215310
215310
215310
215310
215310
215310
215310
215310
215310
215310
215310
215310
215310
215310
215310
215310
215310
215310
215310
215310
215310
215310
215310
215310
215310
215310
215310
215310
215310
215310
215310
215310
215310
215310
215310
215310
215310
215310
215310
215310
215310
215310
215310
215310
215310
215310
215310
215310
215310
215310
215310
215310
215310
215310
215310
215310
215310
215310
215310
)
;

boundaryField
{
    wedge0
    {
        type            wedge;
    }
    wedge1
    {
        type            wedge;
    }
    wedge2
    {
        type            wedge;
    }
    wedge3
    {
        type            wedge;
    }
    outlet
    {
        type            zeroGradient;
    }
    defaultFaces
    {
        type            empty;
    }
}


// ************************************************************************* //
