/*--------------------------------*- C++ -*----------------------------------*\
| =========                 |                                                 |
| \\      /  F ield         | OpenFOAM: The Open Source CFD Toolbox           |
|  \\    /   O peration     | Version:  2312                                  |
|   \\  /    A nd           | Website:  www.openfoam.com                      |
|    \\/     M anipulation  |                                                 |
\*---------------------------------------------------------------------------*/
FoamFile
{
    version     2.0;
    format      ascii;
    arch        "LSB;label=32;scalar=64";
    class       volVectorField;
    location    "1e-05";
    object      U;
}
// * * * * * * * * * * * * * * * * * * * * * * * * * * * * * * * * * * * * * //

dimensions      [0 1 -1 0 0 0 0];

internalField   nonuniform List<vector> 
500
(
(22.3902 -2.66623e-09 3.01619e-09)
(45.4569 -3.37276e-09 3.73815e-09)
(71.1166 -4.32471e-09 4.69619e-09)
(97.4405 -5.27032e-09 5.64413e-09)
(123.794 -4.44288e-09 4.78781e-09)
(150.331 -5.12029e-09 5.41928e-09)
(177.064 -6.30409e-09 6.62607e-09)
(203.635 -7.56073e-09 7.89212e-09)
(230.527 -7.58758e-09 7.98769e-09)
(257.361 -6.7249e-09 7.20584e-09)
(284.403 -6.39877e-09 6.80253e-09)
(311.571 -6.0867e-09 6.43379e-09)
(338.952 -5.53094e-09 5.82315e-09)
(366.599 -4.71387e-09 4.96327e-09)
(394.586 -3.59892e-09 3.83249e-09)
(423 -2.38061e-09 2.57048e-09)
(451.927 -1.0357e-09 1.18014e-09)
(481.442 -4.03126e-10 5.19383e-10)
(511.609 1.07509e-10 -2.42587e-11)
(542.476 -4.26748e-11 8.90029e-11)
(574.085 -8.48349e-11 1.42584e-10)
(606.48 -3.52339e-11 1.16756e-10)
(639.709 -1.38981e-10 3.4915e-10)
(673.827 -4.18208e-10 5.86649e-10)
(708.9 -5.42833e-10 6.61246e-10)
(745 -4.795e-10 4.79513e-10)
(782.252 -5.13855e-10 5.38973e-10)
(820.745 -7.1832e-10 7.25377e-10)
(859.505 -5.75579e-10 5.75568e-10)
(894.219 -5.61094e-10 5.61119e-10)
(914.288 -5.20369e-10 5.20382e-10)
(928.235 -6.20869e-10 6.20925e-10)
(950.222 -5.73888e-10 5.73944e-10)
(977.188 -5.6057e-10 5.60569e-10)
(1004.94 -5.29301e-10 5.29395e-10)
(1033.01 -4.96807e-10 4.96807e-10)
(1060.57 -3.93513e-10 3.93513e-10)
(1088.13 -3.29413e-10 3.29413e-10)
(1115.18 -2.34893e-10 2.34893e-10)
(1142.26 -2.43796e-10 2.43796e-10)
(1168.85 -2.5347e-10 2.5347e-10)
(1195.36 -2.46212e-10 2.46212e-10)
(1221.53 -1.70025e-10 1.70025e-10)
(1247.51 -1.88682e-10 1.88682e-10)
(1273.23 -1.18501e-10 1.18501e-10)
(1298.87 -1.50966e-10 1.50966e-10)
(1324.64 -1.00229e-10 1.00229e-10)
(1350.68 -1.4066e-10 1.4066e-10)
(1377.36 -1.04804e-10 1.04804e-10)
(1405.03 -7.65503e-11 7.65503e-11)
(1433.65 -6.47665e-11 6.47665e-11)
(1463.18 -3.92218e-11 3.92218e-11)
(1493.35 -4.10012e-11 4.10012e-11)
(1523.08 -3.22253e-11 3.22253e-11)
(1552.24 -2.86075e-11 2.86075e-11)
(1580.72 -1.35639e-11 1.35639e-11)
(1608.46 -1.97656e-11 1.97656e-11)
(1635.58 -8.07413e-12 8.07413e-12)
(1662.47 -1.68715e-11 1.68715e-11)
(1689.72 -2.27145e-12 2.27145e-12)
(1718.36 3.20243e-15 -3.20243e-15)
(1748.57 9.54445e-13 -9.54445e-13)
(1779.55 1.15652e-12 -1.15652e-12)
(1809.53 2.23425e-13 -2.23425e-13)
(1838.71 0 4.43258e-33)
(1867.02 1.45638e-12 -1.45638e-12)
(1895.39 -2.04379e-12 2.04379e-12)
(1925.47 1.67231e-12 -1.67231e-12)
(1957.6 1.31204e-12 -1.31204e-12)
(1988.9 6.34927e-13 -6.34927e-13)
(2018.39 5.45621e-13 -5.45621e-13)
(2047.96 5.22317e-13 -5.22317e-13)
(2079.9 5.42763e-14 -5.42763e-14)
(2114.63 2.92707e-13 -2.92707e-13)
(2146.39 -5.15042e-13 5.15042e-13)
(2176.93 3.53376e-13 -3.53376e-13)
(2211.39 5.21873e-13 -5.21873e-13)
(2249.38 4.24421e-13 -4.24421e-13)
(2281.05 2.39213e-13 -2.39213e-13)
(2316.57 1.26128e-13 -1.26128e-13)
(2362.31 3.47506e-13 -3.47506e-13)
(2392.13 3.35427e-14 -3.35427e-14)
(2449.74 3.45577e-13 -3.46591e-13)
(2473.38 2.78573e-13 -2.77787e-13)
(2539.05 3.81673e-13 -3.7883e-13)
(2562.15 1.65372e-14 -1.64606e-14)
(2629.57 8.23374e-14 -8.34366e-14)
(2657.29 -1.13756e-13 1.14397e-13)
(2716.5 -1.92864e-13 1.92189e-13)
(2757.12 -5.4215e-14 5.36702e-14)
(2813.27 -1.52446e-13 1.52228e-13)
(2869.89 -1.47521e-13 1.49088e-13)
(2935.05 -3.69512e-14 3.57201e-14)
(3017.39 -1.12417e-13 1.12898e-13)
(3127.83 -6.38701e-14 6.43885e-14)
(3160.34 -3.99611e-14 4.01979e-14)
(3080.19 -2.37229e-14 2.36443e-14)
(2623.16 -2.00417e-14 2.00104e-14)
(1230.72 -5.76837e-15 5.75755e-15)
(101.881 1.17353e-14 -1.17353e-14)
(1.52324 0 0)
(0.0144104 0 0)
(0.000134369 0 0)
(1.24585e-06 0 5.45971e-17)
(1.14796e-08 0 -5.35571e-17)
(9.65891e-11 1.16557e-14 -1.16741e-14)
(-7.16796e-12 3.69375e-15 -3.75379e-15)
(-1.59272e-12 9.37857e-15 -9.42125e-15)
(2.69621e-12 0 4.96811e-17)
(8.07013e-12 0 0)
(5.43897e-12 6.91665e-15 -6.91665e-15)
(4.15874e-12 2.56201e-14 -2.56201e-14)
(5.1225e-12 1.16191e-14 -1.16235e-14)
(-5.71233e-12 1.62427e-14 -1.62542e-14)
(-8.82087e-12 2.57662e-14 -2.57805e-14)
(-3.40008e-12 2.55489e-14 -2.56038e-14)
(6.79702e-13 3.18018e-15 -3.20916e-15)
(3.30222e-12 0 -4.23619e-17)
(3.67122e-12 -4.70489e-15 4.71812e-15)
(2.369e-12 -1.88475e-14 1.88485e-14)
(-1.70878e-13 -2.13227e-17 2.13227e-17)
(-3.94486e-12 1.47493e-14 -1.47493e-14)
(-2.93353e-12 3.56046e-15 -3.56046e-15)
(-2.22319e-12 0 0)
(5.12378e-12 0 0)
(6.45278e-12 0 0)
(-2.63003e-12 0 0)
(-4.60223e-12 0 0)
(-1.67595e-12 0 0)
(-1.49312e-13 0 0)
(2.60249e-12 0 0)
(5.19446e-12 0 0)
(-4.08658e-12 -1.08606e-15 1.08606e-15)
(-3.33525e-12 -9.01369e-15 9.01369e-15)
(7.81248e-12 -1.92226e-14 1.92226e-14)
(1.92663e-12 -1.96348e-14 1.96348e-14)
(-2.85658e-12 9.81878e-15 -9.81878e-15)
(2.47815e-13 4.14969e-15 -4.14969e-15)
(-2.60559e-12 0 0)
(-4.32454e-12 0 0)
(-2.9026e-12 0 0)
(7.67545e-12 -2.91376e-15 2.91376e-15)
(5.05819e-12 -1.10902e-14 1.10902e-14)
(-5.46865e-12 -1.60796e-16 1.60796e-16)
(-2.62696e-12 0 0)
(2.85424e-13 0 0)
(3.41895e-12 0 0)
(-1.17039e-13 0 0)
(-2.64973e-13 0 0)
(-4.87213e-12 7.30508e-15 -7.30508e-15)
(-1.13965e-11 0 0)
(6.7588e-12 -1.10923e-14 1.10923e-14)
(9.7576e-12 0 0)
(2.28247e-12 4.07416e-15 -4.07416e-15)
(-2.74429e-12 -6.03532e-15 6.03532e-15)
(-2.49847e-12 0 0)
(-2.1067e-12 0 0)
(-2.2634e-12 -8.43947e-15 8.43992e-15)
(4.87137e-12 -3.80748e-15 3.8087e-15)
(8.98486e-13 -1.42709e-14 1.42832e-14)
(-7.07547e-13 -1.72e-14 1.72076e-14)
(-2.40384e-12 -2.62857e-15 2.63142e-15)
(-5.52278e-12 -4.23371e-15 4.23371e-15)
(7.55886e-13 -1.69378e-14 1.69378e-14)
(5.07187e-12 -4.27576e-15 4.27576e-15)
(-1.02158e-12 0 0)
(-3.88246e-13 0 0)
(3.34488e-12 6.11105e-15 -6.11105e-15)
(-3.8002e-12 0 0)
(2.02903e-12 0 0)
(4.77225e-12 0 0)
(-2.67933e-12 -4.65042e-15 4.64067e-15)
(-2.2999e-12 0 -1.9655e-17)
(1.42512e-12 -1.89828e-15 1.88396e-15)
(1.71709e-12 -1.0696e-14 1.06853e-14)
(8.01262e-13 -1.20129e-14 1.20057e-14)
(-1.73867e-12 0 0)
(3.45575e-12 0 0)
(4.16833e-12 -2.45337e-16 2.45337e-16)
(-7.97098e-12 7.5578e-15 -7.5578e-15)
(-6.97231e-12 8.10806e-15 -8.10806e-15)
(1.68905e-12 0 0)
(9.97122e-13 0 0)
(-5.00151e-12 0 0)
(4.34482e-13 0 0)
(1.11498e-11 0 0)
(2.90256e-12 0 0)
(-5.48708e-12 0 0)
(-1.553e-12 0 0)
(4.95499e-12 0 0)
(1.98629e-12 4.40782e-15 -4.40782e-15)
(-6.00723e-13 0 0)
(3.93809e-12 0 0)
(4.56957e-12 -3.02339e-15 3.02339e-15)
(-1.57197e-12 1.48386e-15 -1.48386e-15)
(-3.73523e-12 0 0)
(-2.50075e-12 -2.92703e-15 2.92703e-15)
(-5.64853e-12 0 0)
(-5.5456e-12 0 0)
(5.03249e-12 1.06773e-14 -1.0671e-14)
(-7.37508e-13 9.02219e-15 -9.01165e-15)
(-5.8974e-12 1.9618e-15 -1.95576e-15)
(-3.95195e-12 0 0)
(2.37249e-12 -6.41232e-16 6.41232e-16)
(1.03897e-11 -6.39046e-15 6.39046e-15)
(2.68947e-12 -6.70547e-15 6.70547e-15)
(-1.05889e-11 -1.69061e-15 1.69061e-15)
(-8.48014e-13 -2.77151e-15 2.77151e-15)
(6.99494e-12 2.11847e-15 -2.11847e-15)
(7.97026e-12 0 0)
(4.2452e-12 0 0)
(2.10398e-12 0 0)
(-8.64355e-13 -7.19271e-15 7.19271e-15)
(-1.02946e-11 -5.61577e-15 5.61577e-15)
(-1.13148e-11 -1.26748e-14 1.26748e-14)
(-5.55379e-12 -1.24056e-14 1.24056e-14)
(-7.66287e-13 -1.36146e-15 1.36146e-15)
(6.25578e-12 0 0)
(1.34231e-11 0 0)
(8.49618e-12 0 0)
(-7.80133e-12 0 0)
(-4.72704e-12 0 0)
(5.63426e-12 0 0)
(2.09479e-12 6.33392e-16 -6.33392e-16)
(-7.35966e-13 1.07575e-14 -1.07575e-14)
(-1.42908e-12 2.38795e-15 -2.38795e-15)
(-6.99445e-13 -1.48265e-15 1.48265e-15)
(-4.90029e-12 -9.13461e-15 9.13461e-15)
(-4.3868e-12 -9.50752e-16 9.50752e-16)
(1.75449e-12 -1.28806e-15 1.28806e-15)
(-5.26826e-13 -1.03327e-14 1.03327e-14)
(-1.27544e-12 -6.4788e-16 6.4788e-16)
(3.53317e-12 0 0)
(3.55032e-12 0 0)
(-1.45074e-12 0 0)
(-5.00388e-12 0 0)
(-5.34855e-12 0 0)
(4.1818e-12 0 0)
(-2.36714e-12 0 0)
(1.95602e-12 -2.84496e-15 2.84496e-15)
(6.73201e-12 -8.18156e-15 8.18156e-15)
(3.25093e-12 -4.62162e-15 4.62162e-15)
(7.91407e-13 -6.15162e-15 6.15162e-15)
(-3.84851e-12 9.93336e-15 -9.93336e-15)
(-4.56071e-12 1.34852e-14 -1.34852e-14)
(2.10532e-12 1.02855e-14 -1.02855e-14)
(3.33836e-12 -2.13946e-15 2.13946e-15)
(-1.69131e-12 6.358e-17 -6.358e-17)
(-5.40417e-12 3.49194e-15 -3.49194e-15)
(2.82038e-12 -4.0437e-15 4.0437e-15)
(4.47265e-12 -6.7004e-16 6.7004e-16)
(1.67521e-12 0 0)
(5.84877e-12 0 0)
(8.33329e-15 0 0)
(-1.18358e-11 0 0)
(-1.0591e-11 0 0)
(-2.72755e-12 -2.71874e-15 2.71874e-15)
(7.50179e-12 -7.49138e-15 7.49138e-15)
(6.39138e-12 -2.03995e-15 2.03995e-15)
(-8.00087e-12 0 0)
(-3.55887e-12 0 0)
(5.32827e-12 0 0)
(-2.22457e-12 0 0)
(-7.94843e-13 5.18973e-16 -5.18973e-16)
(1.24676e-12 7.52927e-15 -7.52927e-15)
(-3.45129e-12 6.13622e-15 -6.13622e-15)
(-1.54567e-12 8.01104e-15 -8.01104e-15)
(4.50854e-12 2.61982e-15 -2.61982e-15)
(2.32434e-12 0 0)
(-8.02672e-13 0 0)
(1.87156e-12 0 0)
(-1.71646e-12 0 0)
(8.27021e-13 0 0)
(2.53208e-12 0 0)
(2.5497e-12 -1.89286e-15 1.89286e-15)
(-1.06122e-12 -6.46058e-15 6.46058e-15)
(-1.12273e-12 -1.4198e-15 1.4198e-15)
(2.87222e-12 0 0)
(-2.75504e-12 0 0)
(-1.12815e-12 0 0)
(4.90561e-12 0 0)
(2.44658e-12 3.55855e-16 -3.55855e-16)
(-3.10396e-13 5.83367e-15 -5.83367e-15)
(3.78874e-12 1.63367e-16 -1.63367e-16)
(-3.94755e-12 -4.75842e-15 4.75842e-15)
(-1.43322e-11 -9.76048e-16 9.76048e-16)
(2.18037e-12 0 0)
(4.90343e-12 0 0)
(1.11535e-12 -2.71572e-15 2.71572e-15)
(1.60889e-12 0 0)
(-8.02079e-13 0 0)
(1.5524e-12 3.76991e-15 -3.76991e-15)
(-2.50406e-12 -3.80407e-15 3.80407e-15)
(-2.9494e-12 0 0)
(-1.98924e-12 0 0)
(3.13362e-12 2.468e-15 -2.468e-15)
(6.58879e-12 -1.84538e-15 1.84538e-15)
(4.55326e-12 0 0)
(-2.35466e-12 0 0)
(-9.78125e-12 0 0)
(-2.85072e-12 -3.41294e-15 3.41294e-15)
(5.07714e-12 1.22003e-15 -1.22003e-15)
(1.23627e-12 -1.86213e-15 1.86213e-15)
(-7.63162e-12 0 0)
(-4.71501e-12 3.25517e-15 -3.25517e-15)
(4.94589e-12 0 0)
(5.4133e-12 0 0)
(4.79084e-12 -8.02739e-16 8.02739e-16)
(9.83114e-13 -6.26012e-15 6.26012e-15)
(1.31877e-12 -6.16058e-15 6.16058e-15)
(-7.45634e-13 -9.22737e-16 9.22737e-16)
(-5.97754e-13 0 0)
(-9.94651e-13 0 0)
(-4.47243e-12 0 0)
(1.39715e-12 3.05113e-15 -3.05113e-15)
(1.51234e-12 0 0)
(5.7384e-12 0 0)
(1.16463e-12 0 0)
(-2.94189e-12 -1.81455e-15 1.81455e-15)
(4.94659e-13 -8.13228e-15 8.13228e-15)
(1.84228e-13 -1.17121e-14 1.17121e-14)
(-1.94101e-12 -1.161e-14 1.161e-14)
(-3.53741e-12 -6.435e-15 6.435e-15)
(4.36609e-12 -1.10776e-14 1.10776e-14)
(5.9985e-12 -8.48774e-15 8.48774e-15)
(-1.41933e-12 -2.1334e-15 2.1334e-15)
(-4.47658e-12 0 0)
(-4.61213e-12 0 0)
(2.11042e-12 2.09465e-15 -2.09465e-15)
(4.69454e-12 0 0)
(2.53141e-12 0 0)
(-8.06541e-13 0 0)
(-3.32972e-12 -1.30473e-15 1.30473e-15)
(-2.21493e-12 -5.75859e-15 5.75859e-15)
(-5.13749e-12 -5.72239e-15 5.72239e-15)
(-3.65813e-12 -1.10698e-15 1.10698e-15)
(3.38506e-12 0 0)
(5.79468e-12 0 0)
(7.27844e-12 0 0)
(-1.91833e-12 0 0)
(-1.18241e-11 0 0)
(-3.21165e-12 -1.93806e-15 1.93806e-15)
(4.7317e-12 0 0)
(2.24915e-12 0 0)
(-2.40116e-12 1.90454e-15 -1.90454e-15)
(-1.83198e-12 0 0)
(4.59694e-12 2.76511e-15 -2.76511e-15)
(9.24086e-12 0 0)
(8.17576e-13 -3.3335e-15 3.3335e-15)
(-3.30023e-12 -2.93621e-15 2.93621e-15)
(-2.25952e-12 -5.71098e-15 5.71098e-15)
(-3.51265e-12 -4.8006e-15 4.8006e-15)
(-2.99082e-12 2.0538e-16 -2.0538e-16)
(3.55797e-12 0 0)
(7.80994e-12 0 0)
(3.35743e-12 2.03955e-15 -2.03955e-15)
(-5.68245e-12 0 0)
(-6.52967e-12 -5.61224e-15 5.61224e-15)
(-7.54775e-12 -6.46476e-15 6.46476e-15)
(1.36298e-12 -3.49903e-15 3.49903e-15)
(5.37481e-12 -3.82496e-15 3.82496e-15)
(-4.33037e-12 -4.63806e-16 4.63806e-16)
(6.36097e-12 0 0)
(7.56464e-12 -3.0092e-15 3.0092e-15)
(-5.31554e-12 2.17844e-16 -2.17844e-16)
(-1.68431e-12 -3.01864e-15 3.01864e-15)
(2.44025e-12 0 0)
(-2.06435e-12 2.49443e-15 -2.49443e-15)
(2.27895e-13 0 0)
(-3.95214e-12 0 0)
(-6.48122e-12 8.48044e-16 -8.48044e-16)
(3.98418e-12 -3.1948e-15 3.1948e-15)
(1.1664e-12 -1.98298e-15 1.98298e-15)
(1.42906e-12 -8.21027e-15 8.21027e-15)
(1.56816e-12 -8.09176e-15 8.09176e-15)
(1.87067e-13 -7.69181e-15 7.69181e-15)
(1.71212e-12 -5.92447e-16 5.92447e-16)
(3.41322e-12 0 0)
(1.40762e-12 0 0)
(-7.36978e-12 2.94844e-15 -2.94844e-15)
(-8.05546e-12 1.33235e-15 -1.33235e-15)
(-5.09082e-12 2.96004e-15 -2.96004e-15)
(7.22675e-12 0 0)
(1.01672e-11 0 0)
(-3.09445e-12 -1.52875e-15 1.52875e-15)
(-8.0218e-12 0 0)
(-2.97548e-12 0 0)
(1.19729e-12 9.8909e-16 -9.8909e-16)
(3.20407e-12 4.48431e-15 -4.48431e-15)
(3.45834e-13 4.97402e-15 -4.97402e-15)
(2.43015e-12 0 0)
(7.37432e-12 0 0)
(1.80188e-12 0 0)
(4.23949e-13 2.91939e-15 -2.91939e-15)
(1.93369e-12 0 0)
(-3.65033e-12 0 0)
(-5.10906e-12 0 0)
(5.39074e-14 0 0)
(1.20593e-12 0 0)
(-1.58118e-13 0 0)
(-2.38501e-13 0 0)
(4.00381e-12 0 0)
(5.94808e-12 -1.40041e-15 1.40041e-15)
(7.62733e-13 5.64765e-16 -5.64765e-16)
(-5.34141e-12 5.28954e-15 -5.28954e-15)
(-2.12199e-12 7.23491e-15 -7.23491e-15)
(2.71002e-12 7.31224e-15 -7.31224e-15)
(-4.02602e-12 1.94555e-15 -1.94555e-15)
(1.59885e-12 0 0)
(-3.32919e-13 -2.55967e-15 2.55967e-15)
(-4.30114e-12 0 0)
(-4.14625e-12 0 0)
(1.93315e-12 0 0)
(6.79439e-12 0 0)
(-6.53327e-12 0 0)
(-1.69319e-12 0 0)
(-1.28951e-12 0 0)
(-5.12891e-12 0 0)
(-2.53479e-12 -1.0659e-15 1.0659e-15)
(4.97308e-13 2.28843e-15 -2.28843e-15)
(9.40654e-13 0 0)
(5.57812e-12 -8.07467e-16 8.07467e-16)
(4.85838e-12 -5.24678e-15 5.24678e-15)
(-6.41319e-12 -3.27561e-15 3.27561e-15)
(7.04321e-12 -4.38589e-15 4.38589e-15)
(5.56977e-12 -1.87675e-15 1.87675e-15)
(-4.76688e-12 -3.84003e-15 3.84003e-15)
(-1.39787e-13 -1.0753e-15 1.0753e-15)
(4.24727e-13 -1.51713e-15 1.51713e-15)
(2.21381e-12 7.81758e-16 -7.81758e-16)
(2.2565e-12 2.98432e-16 -2.98432e-16)
(-1.53462e-12 2.04134e-15 -2.04134e-15)
(2.63703e-13 -7.80607e-16 7.80607e-16)
(-3.49928e-12 1.08546e-15 -1.08546e-15)
(-3.2687e-12 0 0)
(-1.67283e-12 1.09192e-15 -1.09192e-15)
(-2.7882e-13 -1.87984e-15 1.87984e-15)
(4.87403e-12 -1.90232e-17 1.90232e-17)
(5.50909e-12 0 0)
(1.14674e-12 -1.72886e-15 1.72886e-15)
(-9.73775e-12 -6.25768e-15 6.25768e-15)
(-1.38074e-11 -5.97877e-15 5.97877e-15)
(3.99512e-12 0 0)
(8.10436e-12 5.66845e-15 -5.66845e-15)
(-4.51602e-12 6.86219e-15 -6.86219e-15)
(6.75987e-13 1.55117e-15 -1.55117e-15)
(2.01061e-12 0 0)
(-4.73348e-12 0 0)
(2.01473e-12 9.54516e-16 -9.54516e-16)
(7.80914e-12 4.1468e-15 -4.1468e-15)
(2.92153e-12 6.28002e-16 -6.28002e-16)
(5.49234e-12 -6.52965e-16 6.52965e-16)
(-2.05971e-12 -4.11754e-15 4.11754e-15)
(-7.00069e-12 -9.57941e-16 9.57941e-16)
(-1.91281e-12 0 0)
(-1.75616e-12 0 0)
(2.20327e-12 0 0)
(3.53607e-12 -2.67007e-15 2.67007e-15)
(4.88245e-12 -9.48829e-15 9.48829e-15)
(-9.21555e-13 -1.11218e-14 1.11218e-14)
(-4.40963e-12 -1.05871e-14 1.05871e-14)
(1.98314e-12 -7.9277e-15 7.9277e-15)
(4.52012e-12 -3.1619e-15 3.1619e-15)
(-6.48877e-13 -5.25533e-16 5.25533e-16)
(-7.42241e-12 0 0)
(-5.96771e-12 0 0)
(3.26434e-12 0 0)
(3.76888e-12 0 0)
(-1.08646e-12 0 0)
(-5.21731e-12 0 0)
(-3.40367e-12 0 0)
(7.79798e-12 5.54718e-16 -5.54718e-16)
(7.7577e-12 4.38895e-15 -4.38895e-15)
(3.58743e-12 -2.25828e-16 2.25828e-16)
(2.0159e-12 -4.52061e-15 4.52061e-15)
(-4.16516e-12 -3.61905e-15 3.61905e-15)
(-1.79661e-12 -4.71632e-15 4.71632e-15)
(2.12149e-12 -7.56571e-16 7.56571e-16)
(1.52458e-12 1.22612e-15 -1.22612e-15)
(-4.40107e-12 5.2806e-15 -5.2806e-15)
(-5.74792e-12 4.5209e-16 -4.5209e-16)
(-1.37419e-12 0 0)
(3.91772e-12 0 0)
(9.50482e-12 0 0)
(2.94358e-12 0 0)
(-6.18796e-12 -3.2853e-15 3.2853e-15)
(-1.04784e-11 1.89637e-15 -1.89637e-15)
(-4.99822e-12 0 0)
(1.61905e-12 -1.77994e-15 1.77994e-15)
(7.17248e-14 -7.12572e-15 7.12572e-15)
(-1.54453e-12 -7.83316e-15 7.83316e-15)
(6.80531e-13 -6.06953e-15 6.06953e-15)
(7.38202e-12 -2.17584e-15 2.17584e-15)
(1.53643e-13 -1.57658e-16 1.57658e-16)
(-7.60611e-12 0 0)
(-5.61458e-12 0 0)
(-1.52913e-12 -1.06194e-15 1.06194e-15)
(1.15337e-11 -4.25976e-15 4.25976e-15)
(1.40495e-11 -3.06896e-16 3.06896e-16)
(1.01968e-11 0 0)
)
;

boundaryField
{
    wedge0
    {
        type            wedge;
    }
    wedge1
    {
        type            wedge;
    }
    wedge2
    {
        type            wedge;
    }
    wedge3
    {
        type            wedge;
    }
    outlet
    {
        type            zeroGradient;
    }
    defaultFaces
    {
        type            empty;
    }
}


// ************************************************************************* //
