/*--------------------------------*- C++ -*----------------------------------*\
| =========                 |                                                 |
| \\      /  F ield         | OpenFOAM: The Open Source CFD Toolbox           |
|  \\    /   O peration     | Version:  2312                                  |
|   \\  /    A nd           | Website:  www.openfoam.com                      |
|    \\/     M anipulation  |                                                 |
\*---------------------------------------------------------------------------*/
FoamFile
{
    version     2.0;
    format      ascii;
    arch        "LSB;label=32;scalar=64";
    class       volScalarField;
    location    "0.049";
    object      p;
}
// * * * * * * * * * * * * * * * * * * * * * * * * * * * * * * * * * * * * * //

dimensions      [1 -1 -2 0 0 0 0];

internalField   nonuniform List<scalar> 
100
(
32347
32217.6
31996.7
31797.7
31589.7
31389
31188.2
30989.9
30794.9
30599.6
30411.4
30217.3
30039.7
29842
29681.9
29471.3
29340.6
29103.3
29016.9
28738.2
28708.5
28381.2
28407.4
28042.7
28101.2
27735.8
27777.2
27471.7
27426.6
27256.6
27046.5
27090.9
26639.7
26969.8
26216.3
26878.9
25798.5
26791.3
25421.4
26671
25124
26486.5
24931.6
26228.7
24842
25919.3
24825.5
25602.5
24840.3
25323.9
24852.8
25112.3
24850.3
24973.2
24838.6
24895.8
24830.4
24864.3
24835.6
24865.1
24857.1
24888.2
24892.9
24926.4
24939.2
24974.6
24993.2
25031.1
25056.5
25102.2
25144.8
25222.1
25328.5
25529.2
25865.5
26455
27358.4
28613.3
30077.5
31567.5
32850.3
33850.8
34534.9
34995.6
35271
35455.1
35556.9
35635.6
35676.4
35719.4
35740.7
35772.2
35787.9
35816
35830.8
35858.1
35873.4
35900.9
35917.5
35942.2
)
;

boundaryField
{
    sides
    {
        type            zeroGradient;
    }
    empty
    {
        type            empty;
    }
}


// ************************************************************************* //
