/*--------------------------------*- C++ -*----------------------------------*\
| =========                 |                                                 |
| \\      /  F ield         | OpenFOAM: The Open Source CFD Toolbox           |
|  \\    /   O peration     | Version:  2312                                  |
|   \\  /    A nd           | Website:  www.openfoam.com                      |
|    \\/     M anipulation  |                                                 |
\*---------------------------------------------------------------------------*/
FoamFile
{
    version     2.0;
    format      ascii;
    arch        "LSB;label=32;scalar=64";
    class       volScalarField;
    location    "0.049";
    object      rho;
}
// * * * * * * * * * * * * * * * * * * * * * * * * * * * * * * * * * * * * * //

dimensions      [1 -3 0 0 0 0 0];

internalField   nonuniform List<scalar> 
100
(
0.490659
0.4891
0.487011
0.484901
0.482689
0.48041
0.478036
0.47558
0.473041
0.470437
0.467777
0.465095
0.462392
0.459733
0.45708
0.454549
0.452026
0.449709
0.447369
0.44531
0.443184
0.441377
0.439487
0.437876
0.436247
0.434747
0.433402
0.43193
0.430878
0.429374
0.428609
0.427043
0.426548
0.42492
0.424656
0.423017
0.422894
0.421372
0.421237
0.420021
0.419697
0.418971
0.418342
0.418191
0.417288
0.417644
0.416646
0.417324
0.416479
0.417273
0.416778
0.417562
0.417488
0.418238
0.418538
0.419292
0.419859
0.420649
0.421374
0.422201
0.422997
0.423831
0.424632
0.425436
0.426202
0.426953
0.427667
0.428369
0.429061
0.429791
0.430623
0.431708
0.433321
0.435988
0.440563
0.448174
0.459731
0.475057
0.492447
0.509311
0.523513
0.534143
0.541426
0.546123
0.549052
0.550861
0.551991
0.552724
0.553225
0.553597
0.553895
0.554155
0.554393
0.554622
0.554845
0.55507
0.555296
0.555526
0.555762
0.555933
)
;

boundaryField
{
    sides
    {
        type            zeroGradient;
    }
    empty
    {
        type            empty;
    }
}


// ************************************************************************* //
