/*--------------------------------*- C++ -*----------------------------------*\
| =========                 |                                                 |
| \\      /  F ield         | OpenFOAM: The Open Source CFD Toolbox           |
|  \\    /   O peration     | Version:  2312                                  |
|   \\  /    A nd           | Website:  www.openfoam.com                      |
|    \\/     M anipulation  |                                                 |
\*---------------------------------------------------------------------------*/
FoamFile
{
    version     2.0;
    format      ascii;
    arch        "LSB;label=32;scalar=64";
    class       volScalarField;
    location    "0.049";
    object      T;
}
// * * * * * * * * * * * * * * * * * * * * * * * * * * * * * * * * * * * * * //

dimensions      [0 0 0 1 0 0 0];

internalField   nonuniform List<scalar> 
100
(
229.149
228.959
228.365
227.932
227.479
227.106
226.774
226.496
226.278
226.088
225.976
225.828
225.813
225.624
225.716
225.362
225.615
224.943
225.449
224.316
225.159
223.503
224.672
222.603
223.901
221.752
222.772
221.073
221.249
220.647
219.338
220.503
217.082
220.614
214.584
220.86
212.044
221
209.767
220.715
208.073
219.737
207.148
218.004
206.926
215.715
207.107
213.241
207.313
210.947
207.268
209.04
206.896
207.545
206.279
206.382
205.562
205.456
204.866
204.708
204.257
204.11
203.763
203.651
203.39
203.321
203.133
203.108
202.985
203.01
202.962
203.074
203.172
203.529
204.069
205.175
206.847
209.356
212.298
215.437
218.11
220.28
221.708
222.734
223.289
223.718
223.9
224.099
224.152
224.271
224.284
224.377
224.379
224.462
224.464
224.544
224.549
224.628
224.637
224.722
)
;

boundaryField
{
    sides
    {
        type            zeroGradient;
    }
    empty
    {
        type            empty;
    }
}


// ************************************************************************* //
