/*--------------------------------*- C++ -*----------------------------------*\
| =========                 |                                                 |
| \\      /  F ield         | OpenFOAM: The Open Source CFD Toolbox           |
|  \\    /   O peration     | Version:  2312                                  |
|   \\  /    A nd           | Website:  www.openfoam.com                      |
|    \\/     M anipulation  |                                                 |
\*---------------------------------------------------------------------------*/
FoamFile
{
    version     2.0;
    format      ascii;
    arch        "LSB;label=32;scalar=64";
    class       volScalarField;
    location    "0.001";
    object      p;
}
// * * * * * * * * * * * * * * * * * * * * * * * * * * * * * * * * * * * * * //

dimensions      [1 -1 -2 0 0 0 0];

internalField   nonuniform List<scalar> 
100
(
413711
413711
413711
413711
413711
413711
413711
413711
413711
413711
413711
413711
413711
413711
413711
413711
413711
413711
413711
413711
413711
413711
413711
413711
413711
413711
413711
413711
413711
413711
413710
413704
413682
413610
413398
412836
411512
408728
403520
394830
381821
364185
342269
316966
289479
261081
232955
206142
181551
160025
142407
129488
121533
117832
116416
115916
115674
115325
114320
111217
103432
88955.5
70322.5
54568.3
45959.8
42699.9
41717
41454.5
41389.9
41375
41371.9
41371.3
41371.2
41371.1
41371.1
41371.1
41371.1
41371.1
41371.1
41371.1
41371.1
41371.1
41371.1
41371.1
41371.1
41371.1
41371.1
41371.1
41371.1
41371.1
41371.1
41371.1
41371.1
41371.1
41371.1
41371.1
41371.1
41371.1
41371.1
41371.1
)
;

boundaryField
{
    sides
    {
        type            zeroGradient;
    }
    empty
    {
        type            empty;
    }
}


// ************************************************************************* //
