/*--------------------------------*- C++ -*----------------------------------*\
| =========                 |                                                 |
| \\      /  F ield         | OpenFOAM: The Open Source CFD Toolbox           |
|  \\    /   O peration     | Version:  2312                                  |
|   \\  /    A nd           | Website:  www.openfoam.com                      |
|    \\/     M anipulation  |                                                 |
\*---------------------------------------------------------------------------*/
FoamFile
{
    version     2.0;
    format      ascii;
    arch        "LSB;label=32;scalar=64";
    class       volScalarField;
    location    "0.001";
    object      rho;
}
// * * * * * * * * * * * * * * * * * * * * * * * * * * * * * * * * * * * * * //

dimensions      [1 -3 0 0 0 0 0];

internalField   nonuniform List<scalar> 
100
(
1.16102
1.16102
1.16102
1.16102
1.16102
1.16102
1.16102
1.16102
1.16102
1.16102
1.16102
1.16102
1.16102
1.16102
1.16102
1.16102
1.16102
1.16102
1.16102
1.16102
1.16102
1.16102
1.16102
1.16102
1.16102
1.16102
1.16102
1.16102
1.16102
1.16102
1.16102
1.16101
1.16097
1.16085
1.1605
1.15957
1.15736
1.1527
1.14392
1.12911
1.10655
1.07526
1.03519
0.987204
0.93275
0.873582
0.811543
0.748488
0.686288
0.626852
0.571958
0.522447
0.476247
0.430479
0.383288
0.337006
0.295739
0.262309
0.237085
0.21781
0.200083
0.179417
0.155861
0.135373
0.123226
0.118247
0.11667
0.11624
0.116133
0.116108
0.116103
0.116102
0.116102
0.116102
0.116102
0.116102
0.116102
0.116102
0.116102
0.116102
0.116102
0.116102
0.116102
0.116102
0.116102
0.116102
0.116102
0.116102
0.116102
0.116102
0.116102
0.116102
0.116102
0.116102
0.116102
0.116102
0.116102
0.116102
0.116102
0.116102
)
;

boundaryField
{
    sides
    {
        type            zeroGradient;
    }
    empty
    {
        type            empty;
    }
}


// ************************************************************************* //
