/*--------------------------------*- C++ -*----------------------------------*\
| =========                 |                                                 |
| \\      /  F ield         | OpenFOAM: The Open Source CFD Toolbox           |
|  \\    /   O peration     | Version:  2312                                  |
|   \\  /    A nd           | Website:  www.openfoam.com                      |
|    \\/     M anipulation  |                                                 |
\*---------------------------------------------------------------------------*/
FoamFile
{
    version     2.0;
    format      ascii;
    arch        "LSB;label=32;scalar=64";
    class       volScalarField;
    location    "0.001";
    object      thermo:e;
}
// * * * * * * * * * * * * * * * * * * * * * * * * * * * * * * * * * * * * * //

dimensions      [0 2 -2 0 0 0 0];

internalField   nonuniform List<scalar> 
100
(
515400
515400
515400
515400
515400
515400
515400
515400
515400
515400
515400
515400
515400
515400
515400
515400
515400
515400
515400
515400
515400
515400
515400
515400
515400
515400
515400
515400
515400
515400
515399
515396
515385
515348
515240
514955
514281
512866
510217
505779
499085
489887
478226
464400
448889
432273
415191
398354
382631
369240
360124
358488
369105
395911
439313
497501
565735
635914
697437
738550
747705
717127
652594
583036
539466
522304
517177
515826
515495
515420
515404
515401
515400
515400
515400
515400
515400
515400
515400
515400
515400
515400
515400
515400
515400
515400
515400
515400
515400
515400
515400
515400
515400
515400
515400
515400
515400
515400
515400
515400
)
;

boundaryField
{
    sides
    {
        type            zeroGradient;
    }
    empty
    {
        type            empty;
    }
}


// ************************************************************************* //
