/*--------------------------------*- C++ -*----------------------------------*\
| =========                 |                                                 |
| \\      /  F ield         | OpenFOAM: The Open Source CFD Toolbox           |
|  \\    /   O peration     | Version:  2312                                  |
|   \\  /    A nd           | Website:  www.openfoam.com                      |
|    \\/     M anipulation  |                                                 |
\*---------------------------------------------------------------------------*/
FoamFile
{
    version     2.0;
    format      ascii;
    arch        "LSB;label=32;scalar=64";
    class       volVectorField;
    location    "0.001";
    object      U;
}
// * * * * * * * * * * * * * * * * * * * * * * * * * * * * * * * * * * * * * //

dimensions      [0 1 -1 0 0 0 0];

internalField   nonuniform List<vector> 
100
(
(2.77422e-14 0 0)
(1.14689e-13 0 0)
(6.31831e-14 0 0)
(7.2981e-14 0 0)
(1.36591e-13 0 0)
(2.41847e-13 0 0)
(3.07899e-13 0 0)
(3.51565e-13 0 0)
(2.8926e-13 0 0)
(2.0475e-13 0 0)
(8.94856e-14 0 0)
(2.58574e-14 0 0)
(1.6021e-14 0 0)
(5.79084e-14 0 0)
(1.5258e-13 0 0)
(1.04439e-13 0 0)
(2.811e-14 0 0)
(-1.68503e-14 0 0)
(-6.1098e-14 0 0)
(2.63949e-13 0 0)
(4.45203e-12 0 0)
(5.35176e-11 0 0)
(5.68223e-10 0 0)
(5.40285e-09 0 0)
(4.61604e-08 0 0)
(3.55103e-07 0 0)
(2.46351e-06 0 0)
(1.54314e-05 0 0)
(8.73597e-05 0 0)
(0.000447246 0 0)
(0.00207132 0 0)
(0.00867796 0 0)
(0.0328792 0 0)
(0.112591 0 0)
(0.348193 0 0)
(0.971733 0 0)
(2.44651 0 0)
(5.56097 0 0)
(11.441 0 0)
(21.4093 0 0)
(36.7057 0 0)
(58.1909 0 0)
(86.1805 0 0)
(120.46 0 0)
(160.419 0 0)
(205.189 0 0)
(253.714 0 0)
(304.698 0 0)
(356.407 0 0)
(406.307 0 0)
(450.71 0 0)
(485.28 0 0)
(507.262 0 0)
(518.213 0 0)
(522.998 0 0)
(524.988 0 0)
(525.58 0 0)
(524.646 0 0)
(519.589 0 0)
(502.363 0 0)
(458.04 0 0)
(372.119 0 0)
(249.403 0 0)
(127.133 0 0)
(48.0427 0 0)
(14.4747 0 0)
(3.81809 0 0)
(0.924033 0 0)
(0.20766 0 0)
(0.0433123 0 0)
(0.00835469 0 0)
(0.00148483 0 0)
(0.000242301 0 0)
(3.61912e-05 0 0)
(4.93321e-06 0 0)
(6.11882e-07 0 0)
(6.88542e-08 0 0)
(7.00774e-09 0 0)
(6.42958e-10 0 0)
(5.29487e-11 0 0)
(3.86789e-12 0 0)
(2.6221e-13 0 0)
(-1.15803e-14 0 0)
(2.69565e-14 0 0)
(-1.08763e-14 0 0)
(-4.61983e-14 0 0)
(3.04474e-14 0 0)
(1.17738e-13 0 0)
(1.50399e-13 0 0)
(1.54406e-13 0 0)
(1.52261e-13 0 0)
(8.34164e-14 0 0)
(6.10682e-14 0 0)
(1.5944e-14 0 0)
(7.4293e-14 0 0)
(1.56672e-13 0 0)
(6.31082e-14 0 0)
(-1.67362e-14 0 0)
(-3.2279e-14 0 0)
(-4.98712e-14 0 0)
)
;

boundaryField
{
    sides
    {
        type            zeroGradient;
    }
    empty
    {
        type            empty;
    }
}


// ************************************************************************* //
