/*--------------------------------*- C++ -*----------------------------------*\
| =========                 |                                                 |
| \\      /  F ield         | OpenFOAM: The Open Source CFD Toolbox           |
|  \\    /   O peration     | Version:  2312                                  |
|   \\  /    A nd           | Website:  www.openfoam.com                      |
|    \\/     M anipulation  |                                                 |
\*---------------------------------------------------------------------------*/
FoamFile
{
    version     2.0;
    format      ascii;
    arch        "LSB;label=32;scalar=64";
    class       volScalarField;
    location    "0.048";
    object      p;
}
// * * * * * * * * * * * * * * * * * * * * * * * * * * * * * * * * * * * * * //

dimensions      [1 -1 -2 0 0 0 0];

internalField   nonuniform List<scalar> 
100
(
32795.7
32673.1
32438.1
32241.3
32026.4
31824.5
31619.8
31419.8
31221.7
31025.7
30834
30641.4
30457.6
30265.9
30094.2
29897.3
29745.7
29532.9
29414.3
29170.7
29100.5
28811.7
28800.3
28461.9
28504.2
28132.9
28199.1
27837.4
27873
27585.3
27518.6
27380.9
27134.4
27224
26723.9
27108.9
26298.4
27020.5
25882.1
26930.3
25512
26802.1
25227
26606.4
25050.3
26338.6
24976.3
26025.1
24972.3
25712.8
24995.9
25447
25015.5
25253.3
25020.5
25133.4
25017.9
25073.3
25019.6
25055.4
25033.4
25065.1
25060.5
25092.6
25098.3
25131.4
25143.9
25178.4
25197.2
25236.6
25267.4
25326.2
25397.4
25533.5
25754.9
26163
26828.4
27849.8
29178.1
30689.2
32131.5
33354.1
34250.3
34876.3
35264.6
35520.8
35665.4
35770
35825
35876.7
35902.5
35937.2
35954.5
35984.1
35999.5
36028
36043.8
36072.3
36089.4
36115.1
)
;

boundaryField
{
    sides
    {
        type            zeroGradient;
    }
    empty
    {
        type            empty;
    }
}


// ************************************************************************* //
