/*--------------------------------*- C++ -*----------------------------------*\
| =========                 |                                                 |
| \\      /  F ield         | OpenFOAM: The Open Source CFD Toolbox           |
|  \\    /   O peration     | Version:  2312                                  |
|   \\  /    A nd           | Website:  www.openfoam.com                      |
|    \\/     M anipulation  |                                                 |
\*---------------------------------------------------------------------------*/
FoamFile
{
    version     2.0;
    format      ascii;
    arch        "LSB;label=32;scalar=64";
    class       volScalarField;
    location    "0.048";
    object      rho;
}
// * * * * * * * * * * * * * * * * * * * * * * * * * * * * * * * * * * * * * //

dimensions      [1 -3 0 0 0 0 0];

internalField   nonuniform List<scalar> 
100
(
0.496004
0.494288
0.492012
0.489723
0.487296
0.484805
0.48221
0.479546
0.476817
0.474053
0.471274
0.468514
0.465789
0.463144
0.460568
0.458127
0.455758
0.453579
0.451435
0.449537
0.447605
0.445966
0.444228
0.442792
0.441244
0.439928
0.438589
0.437302
0.436196
0.434869
0.434011
0.432602
0.431995
0.430492
0.43013
0.428549
0.428399
0.426811
0.426783
0.425338
0.425274
0.424181
0.423906
0.423351
0.422765
0.422817
0.42197
0.42253
0.421618
0.42247
0.421738
0.422657
0.422278
0.423129
0.423139
0.423899
0.42422
0.424923
0.425434
0.426112
0.426706
0.427364
0.427971
0.428594
0.429173
0.429748
0.430288
0.430823
0.431343
0.43189
0.432495
0.433258
0.434347
0.436105
0.439141
0.444416
0.453069
0.465788
0.481956
0.499478
0.515762
0.528973
0.538581
0.545026
0.549128
0.551671
0.553239
0.554227
0.554875
0.555331
0.555677
0.555965
0.55622
0.55646
0.556693
0.556926
0.557158
0.557395
0.557638
0.557814
)
;

boundaryField
{
    sides
    {
        type            zeroGradient;
    }
    empty
    {
        type            empty;
    }
}


// ************************************************************************* //
