/*--------------------------------*- C++ -*----------------------------------*\
| =========                 |                                                 |
| \\      /  F ield         | OpenFOAM: The Open Source CFD Toolbox           |
|  \\    /   O peration     | Version:  2312                                  |
|   \\  /    A nd           | Website:  www.openfoam.com                      |
|    \\/     M anipulation  |                                                 |
\*---------------------------------------------------------------------------*/
FoamFile
{
    version     2.0;
    format      ascii;
    arch        "LSB;label=32;scalar=64";
    class       volScalarField;
    location    "0.048";
    object      T;
}
// * * * * * * * * * * * * * * * * * * * * * * * * * * * * * * * * * * * * * //

dimensions      [0 0 0 1 0 0 0];

internalField   nonuniform List<scalar> 
100
(
229.824
229.76
229.162
228.837
228.443
228.17
227.922
227.738
227.598
227.487
227.415
227.326
227.285
227.144
227.119
226.835
226.858
226.317
226.478
225.551
225.979
224.559
225.348
223.423
224.54
222.278
223.481
221.264
222.108
220.487
220.389
220
218.325
219.811
215.955
219.874
213.376
220.049
210.793
220.075
208.515
219.624
206.852
218.448
205.958
216.523
205.736
214.091
205.874
211.552
206.01
209.272
205.908
207.448
205.531
206.088
204.986
205.1
204.415
204.381
203.917
203.862
203.535
203.499
203.271
203.266
203.113
203.139
203.045
203.105
203.069
203.183
203.243
203.508
203.854
204.626
205.823
207.824
210.433
213.566
216.543
219.169
221.042
222.421
223.218
223.803
224.077
224.333
224.416
224.556
224.577
224.678
224.683
224.771
224.773
224.857
224.862
224.944
224.953
225.041
)
;

boundaryField
{
    sides
    {
        type            zeroGradient;
    }
    empty
    {
        type            empty;
    }
}


// ************************************************************************* //
