/*--------------------------------*- C++ -*----------------------------------*\
| =========                 |                                                 |
| \\      /  F ield         | OpenFOAM: The Open Source CFD Toolbox           |
|  \\    /   O peration     | Version:  2312                                  |
|   \\  /    A nd           | Website:  www.openfoam.com                      |
|    \\/     M anipulation  |                                                 |
\*---------------------------------------------------------------------------*/
FoamFile
{
    version     2.0;
    format      ascii;
    arch        "LSB;label=32;scalar=64";
    class       volVectorField;
    location    "0.048";
    object      U;
}
// * * * * * * * * * * * * * * * * * * * * * * * * * * * * * * * * * * * * * //

dimensions      [0 1 -1 0 0 0 0];

internalField   nonuniform List<vector> 
100
(
(162.439 0 0)
(163.92 0 0)
(165.729 0 0)
(167.479 0 0)
(169.271 0 0)
(171.045 0 0)
(172.839 0 0)
(174.634 0 0)
(176.443 0 0)
(178.26 0 0)
(180.093 0 0)
(181.931 0 0)
(183.792 0 0)
(185.645 0 0)
(187.538 0 0)
(189.395 0 0)
(191.324 0 0)
(193.169 0 0)
(195.137 0 0)
(196.96 0 0)
(198.961 0 0)
(200.766 0 0)
(202.777 0 0)
(204.59 0 0)
(206.567 0 0)
(208.434 0 0)
(210.322 0 0)
(212.288 0 0)
(214.041 0 0)
(216.136 0 0)
(217.726 0 0)
(219.956 0 0)
(221.374 0 0)
(223.729 0 0)
(224.982 0 0)
(227.422 0 0)
(228.555 0 0)
(230.992 0 0)
(232.098 0 0)
(234.387 0 0)
(235.609 0 0)
(237.579 0 0)
(239.044 0 0)
(240.571 0 0)
(242.323 0 0)
(243.396 0 0)
(245.346 0 0)
(246.074 0 0)
(248.034 0 0)
(248.589 0 0)
(250.358 0 0)
(250.882 0 0)
(252.332 0 0)
(252.885 0 0)
(253.992 0 0)
(254.554 0 0)
(255.371 0 0)
(255.892 0 0)
(256.495 0 0)
(256.943 0 0)
(257.398 0 0)
(257.764 0 0)
(258.119 0 0)
(258.417 0 0)
(258.701 0 0)
(258.946 0 0)
(259.178 0 0)
(259.375 0 0)
(259.549 0 0)
(259.673 0 0)
(259.725 0 0)
(259.634 0 0)
(259.279 0 0)
(258.412 0 0)
(256.615 0 0)
(253.276 0 0)
(247.767 0 0)
(239.884 0 0)
(230.257 0 0)
(220.275 0 0)
(211.384 0 0)
(204.46 0 0)
(199.632 0 0)
(196.563 0 0)
(194.763 0 0)
(193.793 0 0)
(193.339 0 0)
(193.19 0 0)
(193.22 0 0)
(193.351 0 0)
(193.541 0 0)
(193.762 0 0)
(194.001 0 0)
(194.25 0 0)
(194.505 0 0)
(194.762 0 0)
(195.021 0 0)
(195.279 0 0)
(195.539 0 0)
(195.746 0 0)
)
;

boundaryField
{
    sides
    {
        type            mywaveTransmissive;
        gamma           1.4;
        value           nonuniform List<vector> 2((195.84 0 0) (161.933 0 0));
    }
    empty
    {
        type            empty;
    }
}


// ************************************************************************* //
