/*--------------------------------*- C++ -*----------------------------------*\
| =========                 |                                                 |
| \\      /  F ield         | OpenFOAM: The Open Source CFD Toolbox           |
|  \\    /   O peration     | Version:  2312                                  |
|   \\  /    A nd           | Website:  www.openfoam.com                      |
|    \\/     M anipulation  |                                                 |
\*---------------------------------------------------------------------------*/
FoamFile
{
    version     2.0;
    format      ascii;
    arch        "LSB;label=32;scalar=64";
    class       volScalarField;
    location    "0.006";
    object      p;
}
// * * * * * * * * * * * * * * * * * * * * * * * * * * * * * * * * * * * * * //

dimensions      [1 -1 -2 0 0 0 0];

internalField   nonuniform List<scalar> 
100
(
99185.7
99185.7
99185.7
99185.7
99185.7
99185.7
99185.7
99185.7
99185.7
99185.6
99185.4
99184.8
99183.6
99180.8
99174.8
99162.5
99138.4
99093.5
99013.4
98877.1
98656.5
98315.8
97814.6
97110.9
96166.8
94953.1
93453.8
91667.7
89608.1
87300.3
84777.8
82078.9
79243.5
76309.9
73313.9
70287.5
67258.7
64252.5
61287.6
58380.9
55546.3
52795.7
50138.9
47584.7
45142.4
42819.2
40623.7
38565.9
36658
34915.1
33355.3
31999.5
30868.3
29973.6
29313.4
28864.5
28585.4
28426.4
28342.7
28301.1
28281.2
28272.1
28268.5
28267.8
28268.8
28270.9
28273.6
28276.7
28280.2
28283.9
28287.8
28291.9
28296.2
28300.7
28305.4
28310.5
28316.9
28323.9
28311.9
28178
27594.7
25930.9
22644.4
18167.7
14045.7
11515
10434.6
10071.8
9962.58
9931.01
9922.02
9919.49
9918.79
9918.59
9918.54
9918.52
9918.52
9918.52
9918.52
9918.52
)
;

boundaryField
{
    sides
    {
        type            zeroGradient;
    }
    empty
    {
        type            empty;
    }
}


// ************************************************************************* //
