/*--------------------------------*- C++ -*----------------------------------*\
| =========                 |                                                 |
| \\      /  F ield         | OpenFOAM: The Open Source CFD Toolbox           |
|  \\    /   O peration     | Version:  2312                                  |
|   \\  /    A nd           | Website:  www.openfoam.com                      |
|    \\/     M anipulation  |                                                 |
\*---------------------------------------------------------------------------*/
FoamFile
{
    version     2.0;
    format      ascii;
    arch        "LSB;label=32;scalar=64";
    class       volScalarField;
    location    "0.006";
    object      p;
}
// * * * * * * * * * * * * * * * * * * * * * * * * * * * * * * * * * * * * * //

dimensions      [1 -1 -2 0 0 0 0];

internalField   nonuniform List<scalar> 
100
(
110318
110318
110318
110318
110318
110318
110318
110318
110317
110317
110315
110312
110305
110292
110266
110219
110136
109997
109774
109433
108935
108239
107305
106104
104616
102837
100775
98451
95895.7
93144.4
90236.1
87208.2
84096.3
80933.1
77747.6
74564.8
71406.1
68289.3
65229.3
62239.4
59329.5
56507.6
53780.7
51155
48636.4
46230.4
43943
41782.9
39756.9
37876.4
36155.3
34611
33263.5
32132.2
31230.5
30557.3
30096.6
29810.9
29645.6
29556.7
29512.1
29491
29481.8
29478.3
29477.8
29478.8
29480.7
29483.2
29486.1
29489.3
29492.6
29496.2
29500
29504
29508.1
29512.4
29517
29522.8
29532.9
29547.9
29521.6
29208.4
27933.1
24776.1
19701.3
14416.8
10937.5
9473.86
9029.19
8913.03
8884.13
8877.04
8875.31
8874.89
8874.79
8874.76
8874.76
8874.76
8874.76
8874.76
)
;

boundaryField
{
    sides
    {
        type            zeroGradient;
    }
    empty
    {
        type            empty;
    }
}


// ************************************************************************* //
