/*--------------------------------*- C++ -*----------------------------------*\
| =========                 |                                                 |
| \\      /  F ield         | OpenFOAM: The Open Source CFD Toolbox           |
|  \\    /   O peration     | Version:  2312                                  |
|   \\  /    A nd           | Website:  www.openfoam.com                      |
|    \\/     M anipulation  |                                                 |
\*---------------------------------------------------------------------------*/
FoamFile
{
    version     2.0;
    format      ascii;
    arch        "LSB;label=32;scalar=64";
    class       volScalarField;
    location    "0.006";
    object      rho;
}
// * * * * * * * * * * * * * * * * * * * * * * * * * * * * * * * * * * * * * //

dimensions      [1 -3 0 0 0 0 0];

internalField   nonuniform List<scalar> 
100
(
1.116
1.116
1.116
1.116
1.116
1.116
1.116
1.116
1.116
1.11599
1.11598
1.11596
1.11591
1.11581
1.11562
1.11528
1.11468
1.11368
1.11207
1.1096
1.10598
1.10092
1.09411
1.08531
1.07438
1.06123
1.0459
1.02851
1.00923
0.988296
0.96596
0.942474
0.91808
0.893007
0.867462
0.841629
0.81567
0.789724
0.763912
0.738348
0.713123
0.688314
0.663995
0.640238
0.617111
0.594688
0.573049
0.552302
0.532545
0.513923
0.496611
0.480824
0.466807
0.454799
0.444968
0.437316
0.431655
0.427548
0.424321
0.42134
0.418008
0.413751
0.408013
0.400345
0.390536
0.378604
0.364877
0.34994
0.334539
0.319455
0.30537
0.292803
0.282063
0.273266
0.266357
0.261158
0.257417
0.254854
0.25321
0.252237
0.25145
0.249199
0.241245
0.221676
0.189381
0.153843
0.128441
0.116759
0.112966
0.111942
0.111684
0.11162
0.111605
0.111601
0.1116
0.1116
0.1116
0.1116
0.1116
0.1116
)
;

boundaryField
{
    sides
    {
        type            zeroGradient;
    }
    empty
    {
        type            empty;
    }
}


// ************************************************************************* //
