/*--------------------------------*- C++ -*----------------------------------*\
| =========                 |                                                 |
| \\      /  F ield         | OpenFOAM: The Open Source CFD Toolbox           |
|  \\    /   O peration     | Version:  2312                                  |
|   \\  /    A nd           | Website:  www.openfoam.com                      |
|    \\/     M anipulation  |                                                 |
\*---------------------------------------------------------------------------*/
FoamFile
{
    version     2.0;
    format      ascii;
    arch        "LSB;label=32;scalar=64";
    class       volScalarField;
    location    "0.006";
    object      T;
}
// * * * * * * * * * * * * * * * * * * * * * * * * * * * * * * * * * * * * * //

dimensions      [0 0 0 1 0 0 0];

internalField   nonuniform List<scalar> 
100
(
300
300
300
300
300
300
300
300
300
300
300
299.999
299.998
299.996
299.99
299.979
299.958
299.918
299.847
299.726
299.531
299.228
298.782
298.154
297.308
296.214
294.852
293.212
291.297
289.119
286.697
284.053
281.214
278.206
275.055
271.783
268.414
264.968
261.461
257.912
254.334
250.744
247.156
243.585
240.05
236.571
233.169
229.875
226.727
223.773
221.075
218.706
216.749
215.28
214.351
213.984
214.178
214.961
216.427
218.775
222.313
227.415
234.458
243.757
255.478
269.591
285.816
303.625
322.26
340.823
358.383
374.137
387.515
398.258
406.416
412.273
416.251
418.805
420.269
420.537
418.394
410.899
394.196
367.206
336.722
314.72
304.716
301.378
300.393
300.111
300.031
300.009
300.002
300.001
300
300
300
300
300
300
)
;

boundaryField
{
    sides
    {
        type            zeroGradient;
    }
    empty
    {
        type            empty;
    }
}


// ************************************************************************* //
