/*--------------------------------*- C++ -*----------------------------------*\
| =========                 |                                                 |
| \\      /  F ield         | OpenFOAM: The Open Source CFD Toolbox           |
|  \\    /   O peration     | Version:  2312                                  |
|   \\  /    A nd           | Website:  www.openfoam.com                      |
|    \\/     M anipulation  |                                                 |
\*---------------------------------------------------------------------------*/
FoamFile
{
    version     2.0;
    format      ascii;
    arch        "LSB;label=32;scalar=64";
    class       volScalarField;
    location    "0.006";
    object      T;
}
// * * * * * * * * * * * * * * * * * * * * * * * * * * * * * * * * * * * * * //

dimensions      [0 0 0 1 0 0 0];

internalField   nonuniform List<scalar> 
100
(
348.432
348.432
348.432
348.432
348.432
348.432
348.432
348.432
348.432
348.431
348.43
348.427
348.42
348.408
348.384
348.34
348.263
348.135
347.928
347.612
347.15
346.501
345.628
344.499
343.091
341.392
339.4
337.125
334.584
331.8
328.797
325.604
322.244
318.744
315.125
311.409
307.613
303.756
299.852
295.915
291.96
287.998
284.04
280.101
276.193
272.333
268.539
264.838
261.257
257.833
254.617
251.671
249.071
246.899
245.23
244.115
243.574
243.579
244.084
245.099
246.72
249.142
252.654
257.589
264.222
272.775
283.324
295.76
309.764
324.811
340.226
355.255
369.183
381.431
391.639
399.697
405.72
409.987
412.863
414.712
415.664
414.95
409.789
395.204
367.169
329.864
299.015
284.563
280.203
279.101
278.832
278.767
278.751
278.747
278.746
278.746
278.746
278.746
278.746
278.746
)
;

boundaryField
{
    sides
    {
        type            zeroGradient;
    }
    empty
    {
        type            empty;
    }
}


// ************************************************************************* //
