/*--------------------------------*- C++ -*----------------------------------*\
| =========                 |                                                 |
| \\      /  F ield         | OpenFOAM: The Open Source CFD Toolbox           |
|  \\    /   O peration     | Version:  2312                                  |
|   \\  /    A nd           | Website:  www.openfoam.com                      |
|    \\/     M anipulation  |                                                 |
\*---------------------------------------------------------------------------*/
FoamFile
{
    version     2.0;
    format      ascii;
    arch        "LSB;label=32;scalar=64";
    class       volScalarField;
    location    "0.006";
    object      thermo:e;
}
// * * * * * * * * * * * * * * * * * * * * * * * * * * * * * * * * * * * * * //

dimensions      [0 2 -2 0 0 0 0];

internalField   nonuniform List<scalar> 
100
(
247130
247130
247130
247130
247130
247130
247130
247130
247129
247129
247128
247126
247122
247113
247096
247066
247013
246924
246781
246563
246243
245794
245191
244410
243436
242260
240882
239308
237549
235621
233542
231330
229003
226577
224068
221492
218859
216183
213473
210741
207994
205241
202491
199752
197035
194349
191709
189133
186638
184253
182012
179959
178145
176630
175466
174689
174311
174315
174667
175375
176506
178195
180644
184083
188703
194656
201993
210633
220351
230781
241453
251847
261470
269924
276964
282519
286669
289608
291589
292862
293517
293026
289472
279422
260078
234281
212893
202854
199823
199057
198870
198825
198814
198811
198810
198810
198810
198810
198810
198810
)
;

boundaryField
{
    sides
    {
        type            zeroGradient;
    }
    empty
    {
        type            empty;
    }
}


// ************************************************************************* //
