/*--------------------------------*- C++ -*----------------------------------*\
| =========                 |                                                 |
| \\      /  F ield         | OpenFOAM: The Open Source CFD Toolbox           |
|  \\    /   O peration     | Version:  2312                                  |
|   \\  /    A nd           | Website:  www.openfoam.com                      |
|    \\/     M anipulation  |                                                 |
\*---------------------------------------------------------------------------*/
FoamFile
{
    version     2.0;
    format      ascii;
    arch        "LSB;label=32;scalar=64";
    class       volVectorField;
    location    "0.006";
    object      U;
}
// * * * * * * * * * * * * * * * * * * * * * * * * * * * * * * * * * * * * * //

dimensions      [0 1 -1 0 0 0 0];

internalField   nonuniform List<vector> 
100
(
(2.50378e-07 0 0)
(8.14174e-07 0 0)
(2.55226e-06 0 0)
(7.71459e-06 0 0)
(2.24803e-05 0 0)
(6.31395e-05 0 0)
(0.000170887 0 0)
(0.000445569 0 0)
(0.00111891 0 0)
(0.00270532 0 0)
(0.00629565 0 0)
(0.0140964 0 0)
(0.030357 0 0)
(0.0628544 0 0)
(0.125078 0 0)
(0.239146 0 0)
(0.43922 0 0)
(0.774833 0 0)
(1.31311 0 0)
(2.13868 0 0)
(3.35029 0 0)
(5.05385 0 0)
(7.35275 0 0)
(10.3375 0 0)
(14.0769 0 0)
(18.6124 0 0)
(23.9567 0 0)
(30.0967 0 0)
(36.9982 0 0)
(44.6107 0 0)
(52.8743 0 0)
(61.7279 0 0)
(71.1096 0 0)
(80.9596 0 0)
(91.222 0 0)
(101.846 0 0)
(112.784 0 0)
(123.995 0 0)
(135.44 0 0)
(147.08 0 0)
(158.881 0 0)
(170.813 0 0)
(182.84 0 0)
(194.927 0 0)
(207.032 0 0)
(219.106 0 0)
(231.085 0 0)
(242.889 0 0)
(254.425 0 0)
(265.559 0 0)
(276.125 0 0)
(285.911 0 0)
(294.674 0 0)
(302.168 0 0)
(308.205 0 0)
(312.715 0 0)
(315.787 0 0)
(317.694 0 0)
(318.798 0 0)
(319.398 0 0)
(319.709 0 0)
(319.869 0 0)
(319.954 0 0)
(320.003 0 0)
(320.037 0 0)
(320.063 0 0)
(320.086 0 0)
(320.109 0 0)
(320.132 0 0)
(320.158 0 0)
(320.185 0 0)
(320.215 0 0)
(320.249 0 0)
(320.285 0 0)
(320.324 0 0)
(320.364 0 0)
(320.41 0 0)
(320.472 0 0)
(320.587 0 0)
(320.711 0 0)
(320.114 0 0)
(315.622 0 0)
(299.646 0 0)
(261.914 0 0)
(197.287 0 0)
(116.724 0 0)
(49.6145 0 0)
(15.5154 0 0)
(4.10711 0 0)
(1.02543 0 0)
(0.251541 0 0)
(0.0612753 0 0)
(0.0148487 0 0)
(0.0035768 0 0)
(0.000855185 0 0)
(0.000202585 0 0)
(4.74569e-05 0 0)
(1.09719e-05 0 0)
(2.49868e-06 0 0)
(5.59272e-07 0 0)
)
;

boundaryField
{
    sides
    {
        type            zeroGradient;
    }
    empty
    {
        type            empty;
    }
}


// ************************************************************************* //
