/*--------------------------------*- C++ -*----------------------------------*\
| =========                 |                                                 |
| \\      /  F ield         | OpenFOAM: The Open Source CFD Toolbox           |
|  \\    /   O peration     | Version:  2312                                  |
|   \\  /    A nd           | Website:  www.openfoam.com                      |
|    \\/     M anipulation  |                                                 |
\*---------------------------------------------------------------------------*/
FoamFile
{
    version     2.0;
    format      ascii;
    arch        "LSB;label=32;scalar=64";
    class       volScalarField;
    location    "0.025";
    object      p;
}
// * * * * * * * * * * * * * * * * * * * * * * * * * * * * * * * * * * * * * //

dimensions      [1 -1 -2 0 0 0 0];

internalField   nonuniform List<scalar> 
100
(
56070
55575.9
54876.1
54231.9
53576.6
52928
52281
51639.2
50997.2
50368.2
49724.5
49123.3
48455.2
47917.8
47178.9
46760.9
45900.9
45632.5
44663.7
44479.8
43518.3
43277.9
42454
42074
41408.6
40923.5
40352.4
39831.3
39299.1
38779.8
38265.8
37759.1
37259.7
36767.6
36283.2
35806.7
35338.2
34878.2
34427
33985
33552.6
33130.4
32719
32319.3
31932
31558.3
31199.3
30856.4
30531.2
30225.4
29940.9
29679.3
29443.2
29232.8
29052.2
28895.9
28775.6
28667.6
28610.1
28530.4
28539.7
28452.7
28541
28402.9
28586.1
28363.8
28642.5
28342.1
28677.3
28353.9
28669.4
28402.4
28626.5
28472.2
28566.7
28546.2
28494.7
28640.6
28395
28793.1
28238.3
29044.2
28044
29433.2
27924.1
29944.9
28042
30497
28564.9
31051.5
29693.4
31962.7
31925.9
34115.3
35467.4
37176.4
38475.8
39291.8
39526.6
39841.7
)
;

boundaryField
{
    sides
    {
        type            zeroGradient;
    }
    empty
    {
        type            empty;
    }
}


// ************************************************************************* //
