/*--------------------------------*- C++ -*----------------------------------*\
| =========                 |                                                 |
| \\      /  F ield         | OpenFOAM: The Open Source CFD Toolbox           |
|  \\    /   O peration     | Version:  2312                                  |
|   \\  /    A nd           | Website:  www.openfoam.com                      |
|    \\/     M anipulation  |                                                 |
\*---------------------------------------------------------------------------*/
FoamFile
{
    version     2.0;
    format      ascii;
    arch        "LSB;label=32;scalar=64";
    class       volScalarField;
    location    "0.025";
    object      T;
}
// * * * * * * * * * * * * * * * * * * * * * * * * * * * * * * * * * * * * * //

dimensions      [0 0 0 1 0 0 0];

internalField   nonuniform List<scalar> 
100
(
264.927
263.82
261.954
260.218
258.388
256.548
254.708
252.921
251.194
249.615
248.057
246.814
245.305
244.56
242.783
242.782
240.378
241.227
238.22
239.491
236.527
237.386
235.17
235.185
233.763
233.174
232.162
231.345
230.455
229.593
228.728
227.868
227.012
226.16
225.313
224.472
223.638
222.81
221.99
221.179
220.378
219.588
218.811
218.048
217.302
216.575
215.869
215.187
214.534
213.913
213.33
212.787
212.294
211.842
211.463
211.105
210.873
210.575
210.549
210.2
210.488
209.886
210.674
209.566
211.035
209.246
211.393
209.061
211.555
209.158
211.399
209.536
211.041
210.074
210.592
210.603
210.021
211.346
209.278
212.585
207.932
214.292
206.006
216.684
204.414
219.205
203.746
220.421
204.905
220.45
209.055
220.43
215.392
221.663
223.011
226.422
230.01
232.431
231.671
232.283
)
;

boundaryField
{
    sides
    {
        type            zeroGradient;
    }
    empty
    {
        type            empty;
    }
}


// ************************************************************************* //
