/*--------------------------------*- C++ -*----------------------------------*\
| =========                 |                                                 |
| \\      /  F ield         | OpenFOAM: The Open Source CFD Toolbox           |
|  \\    /   O peration     | Version:  2312                                  |
|   \\  /    A nd           | Website:  www.openfoam.com                      |
|    \\/     M anipulation  |                                                 |
\*---------------------------------------------------------------------------*/
FoamFile
{
    version     2.0;
    format      ascii;
    arch        "LSB;label=32;scalar=64";
    class       volVectorField;
    location    "0.025";
    object      U;
}
// * * * * * * * * * * * * * * * * * * * * * * * * * * * * * * * * * * * * * //

dimensions      [0 1 -1 0 0 0 0];

internalField   nonuniform List<vector> 
100
(
(106.204 0 0)
(109.25 0 0)
(112.744 0 0)
(116.134 0 0)
(119.553 0 0)
(122.957 0 0)
(126.35 0 0)
(129.733 0 0)
(133.1 0 0)
(136.478 0 0)
(139.827 0 0)
(143.238 0 0)
(146.559 0 0)
(150.046 0 0)
(153.316 0 0)
(156.889 0 0)
(160.132 0 0)
(163.708 0 0)
(167.041 0 0)
(170.47 0 0)
(173.999 0 0)
(177.251 0 0)
(180.888 0 0)
(184.12 0 0)
(187.695 0 0)
(191.017 0 0)
(194.492 0 0)
(197.877 0 0)
(201.298 0 0)
(204.697 0 0)
(208.096 0 0)
(211.486 0 0)
(214.867 0 0)
(218.239 0 0)
(221.599 0 0)
(224.945 0 0)
(228.276 0 0)
(231.588 0 0)
(234.879 0 0)
(238.143 0 0)
(241.377 0 0)
(244.575 0 0)
(247.73 0 0)
(250.834 0 0)
(253.88 0 0)
(256.855 0 0)
(259.749 0 0)
(262.546 0 0)
(265.233 0 0)
(267.791 0 0)
(270.203 0 0)
(272.449 0 0)
(274.514 0 0)
(276.378 0 0)
(278.037 0 0)
(279.467 0 0)
(280.699 0 0)
(281.691 0 0)
(282.543 0 0)
(283.141 0 0)
(283.717 0 0)
(283.999 0 0)
(284.42 0 0)
(284.484 0 0)
(284.827 0 0)
(284.785 0 0)
(285.037 0 0)
(285.018 0 0)
(285.12 0 0)
(285.221 0 0)
(285.145 0 0)
(285.358 0 0)
(285.171 0 0)
(285.442 0 0)
(285.221 0 0)
(285.493 0 0)
(285.189 0 0)
(285.534 0 0)
(285.065 0 0)
(285.623 0 0)
(284.793 0 0)
(285.466 0 0)
(284.076 0 0)
(284.58 0 0)
(282.755 0 0)
(282.571 0 0)
(280.529 0 0)
(278.886 0 0)
(276.802 0 0)
(273.2 0 0)
(270.42 0 0)
(263.62 0 0)
(257.191 0 0)
(246.03 0 0)
(236.459 0 0)
(226.737 0 0)
(220.408 0 0)
(217.406 0 0)
(215.466 0 0)
(214.249 0 0)
)
;

boundaryField
{
    sides
    {
        type            mywaveTransmissive;
        gamma           1.4;
        value           nonuniform List<vector> 2((214.195 0 0) (104.971 0 0));
    }
    empty
    {
        type            empty;
    }
}


// ************************************************************************* //
