/*--------------------------------*- C++ -*----------------------------------*\
| =========                 |                                                 |
| \\      /  F ield         | OpenFOAM: The Open Source CFD Toolbox           |
|  \\    /   O peration     | Version:  2312                                  |
|   \\  /    A nd           | Website:  www.openfoam.com                      |
|    \\/     M anipulation  |                                                 |
\*---------------------------------------------------------------------------*/
FoamFile
{
    version     2.0;
    format      ascii;
    arch        "LSB;label=32;scalar=64";
    class       volScalarField;
    location    "0.0001";
    object      p;
}
// * * * * * * * * * * * * * * * * * * * * * * * * * * * * * * * * * * * * * //

dimensions      [1 -1 -2 0 0 0 0];

internalField   nonuniform List<scalar> 
100
(
1187.78
1187.78
1187.78
1187.78
1187.78
1187.78
1187.78
1187.78
1187.78
1187.78
1187.78
1187.78
1187.78
1187.78
1187.78
1187.78
1187.78
1187.78
1187.78
1187.78
1187.78
1187.78
1187.78
1187.78
1187.78
1187.78
1187.78
1187.78
1187.78
1187.78
1187.78
1187.78
1187.78
1187.78
1187.78
1187.78
1187.78
1187.78
1187.78
1187.78
1187.78
1187.78
1187.78
1187.78
1187.78
1187.78
1187.78
1187.78
1187.78
1.92799e+10
-2.20424e+10
2.05493e+09
2.05493e+09
2.05493e+09
2.05493e+09
2.05493e+09
2.05493e+09
2.05493e+09
2.05493e+09
2.05493e+09
2.05493e+09
2.05493e+09
2.05493e+09
2.05493e+09
2.05493e+09
2.05493e+09
2.05493e+09
2.05493e+09
2.05493e+09
2.05493e+09
2.05493e+09
2.05493e+09
2.05493e+09
2.05493e+09
2.05493e+09
2.05493e+09
2.05493e+09
2.05493e+09
2.05493e+09
2.05493e+09
2.05493e+09
2.05493e+09
2.05493e+09
2.05493e+09
2.05493e+09
2.05493e+09
2.05493e+09
2.05493e+09
2.05493e+09
2.05493e+09
2.05493e+09
2.05493e+09
2.05493e+09
2.05493e+09
2.05493e+09
2.05493e+09
2.05493e+09
2.05493e+09
2.05493e+09
2.05493e+09
)
;

boundaryField
{
    sides
    {
        type            zeroGradient;
    }
    empty
    {
        type            empty;
    }
}


// ************************************************************************* //
