/*--------------------------------*- C++ -*----------------------------------*\
| =========                 |                                                 |
| \\      /  F ield         | OpenFOAM: The Open Source CFD Toolbox           |
|  \\    /   O peration     | Version:  2312                                  |
|   \\  /    A nd           | Website:  www.openfoam.com                      |
|    \\/     M anipulation  |                                                 |
\*---------------------------------------------------------------------------*/
FoamFile
{
    version     2.0;
    format      ascii;
    arch        "LSB;label=32;scalar=64";
    class       volScalarField;
    location    "0.0001";
    object      rho;
}
// * * * * * * * * * * * * * * * * * * * * * * * * * * * * * * * * * * * * * //

dimensions      [1 -3 0 0 0 0 0];

internalField   nonuniform List<scalar> 
100
(
0.001
0.001
0.001
0.001
0.001
0.001
0.001
0.001
0.001
0.001
0.001
0.001
0.001
0.001
0.001
0.001
0.001
0.001
0.001
0.001
0.001
0.001
0.001
0.001
0.001
0.001
0.001
0.001
0.001
0.001
0.001
0.001
0.001
0.001
0.001
0.001
0.001
0.001
0.001
0.001
0.001
0.001
0.001
0.001
0.001
0.001
0.001
0.001
0.001
72.9958
-66.7701
6.22473
6.22473
6.22473
6.22473
6.22473
6.22473
6.22473
6.22473
6.22473
6.22473
6.22473
6.22473
6.22473
6.22473
6.22473
6.22473
6.22473
6.22473
6.22473
6.22473
6.22473
6.22473
6.22473
6.22473
6.22473
6.22473
6.22473
6.22473
6.22473
6.22473
6.22473
6.22473
6.22473
6.22473
6.22473
6.22473
6.22473
6.22473
6.22473
6.22473
6.22473
6.22473
6.22473
6.22473
6.22473
6.22473
6.22473
6.22473
6.22473
)
;

boundaryField
{
    sides
    {
        type            zeroGradient;
    }
    empty
    {
        type            empty;
    }
}


// ************************************************************************* //
