/*--------------------------------*- C++ -*----------------------------------*\
| =========                 |                                                 |
| \\      /  F ield         | OpenFOAM: The Open Source CFD Toolbox           |
|  \\    /   O peration     | Version:  2312                                  |
|   \\  /    A nd           | Website:  www.openfoam.com                      |
|    \\/     M anipulation  |                                                 |
\*---------------------------------------------------------------------------*/
FoamFile
{
    version     2.0;
    format      ascii;
    arch        "LSB;label=32;scalar=64";
    class       volScalarField;
    location    "0.0001";
    object      thermo:e;
}
// * * * * * * * * * * * * * * * * * * * * * * * * * * * * * * * * * * * * * //

dimensions      [0 2 -2 0 0 0 0];

internalField   nonuniform List<scalar> 
100
(
1.7815e+06
1.7815e+06
1.7815e+06
1.7815e+06
1.7815e+06
1.7815e+06
1.7815e+06
1.7815e+06
1.7815e+06
1.7815e+06
1.7815e+06
1.7815e+06
1.7815e+06
1.7815e+06
1.7815e+06
1.7815e+06
1.7815e+06
1.7815e+06
1.7815e+06
1.7815e+06
1.7815e+06
1.7815e+06
1.7815e+06
1.7815e+06
1.7815e+06
1.7815e+06
1.7815e+06
1.7815e+06
1.7815e+06
1.7815e+06
1.7815e+06
1.7815e+06
1.7815e+06
1.7815e+06
1.7815e+06
1.7815e+06
1.7815e+06
1.7815e+06
1.7815e+06
1.7815e+06
1.7815e+06
1.7815e+06
1.7815e+06
1.7815e+06
1.7815e+06
1.7815e+06
1.7815e+06
1.7815e+06
1.7815e+06
3.96148e+08
3.76827e+08
4.95138e+08
4.95138e+08
4.95138e+08
4.95138e+08
4.95138e+08
4.95138e+08
4.95138e+08
4.95138e+08
4.95138e+08
4.95138e+08
4.95138e+08
4.95138e+08
4.95138e+08
4.95138e+08
4.95138e+08
4.95138e+08
4.95138e+08
4.95138e+08
4.95138e+08
4.95138e+08
4.95138e+08
4.95138e+08
4.95138e+08
4.95138e+08
4.95138e+08
4.95138e+08
4.95138e+08
4.95138e+08
4.95138e+08
4.95138e+08
4.95138e+08
4.95138e+08
4.95138e+08
4.95138e+08
4.95138e+08
4.95138e+08
4.95138e+08
4.95138e+08
4.95138e+08
4.95138e+08
4.95138e+08
4.95138e+08
4.95138e+08
4.95138e+08
4.95138e+08
4.95138e+08
4.95138e+08
4.95138e+08
4.95138e+08
)
;

boundaryField
{
    sides
    {
        type            zeroGradient;
    }
    empty
    {
        type            empty;
    }
}


// ************************************************************************* //
