/*--------------------------------*- C++ -*----------------------------------*\
| =========                 |                                                 |
| \\      /  F ield         | OpenFOAM: The Open Source CFD Toolbox           |
|  \\    /   O peration     | Version:  2312                                  |
|   \\  /    A nd           | Website:  www.openfoam.com                      |
|    \\/     M anipulation  |                                                 |
\*---------------------------------------------------------------------------*/
FoamFile
{
    version     2.0;
    format      ascii;
    arch        "LSB;label=32;scalar=64";
    class       volScalarField;
    location    "0.0003";
    object      p;
}
// * * * * * * * * * * * * * * * * * * * * * * * * * * * * * * * * * * * * * //

dimensions      [1 -1 -2 0 0 0 0];

internalField   nonuniform List<scalar> 
100
(
6.4524e+08
6.45059e+08
6.44934e+08
6.44839e+08
6.44759e+08
6.44699e+08
6.44689e+08
6.44749e+08
6.44836e+08
6.44851e+08
6.44735e+08
6.44556e+08
6.44471e+08
6.446e+08
6.44972e+08
6.46307e+08
6.66736e+08
6.49577e+08
6.45271e+08
6.44583e+08
6.44575e+08
6.44765e+08
6.44962e+08
6.45062e+08
6.45044e+08
6.44949e+08
6.4483e+08
6.4472e+08
6.44619e+08
6.44512e+08
6.44383e+08
6.44224e+08
6.44036e+08
6.43827e+08
6.43605e+08
6.43372e+08
6.43133e+08
6.42888e+08
6.42639e+08
6.42389e+08
6.4214e+08
6.41897e+08
6.41662e+08
6.41439e+08
6.41229e+08
6.41034e+08
6.40854e+08
6.40693e+08
6.40549e+08
6.40423e+08
6.40315e+08
6.40226e+08
6.40154e+08
6.40098e+08
6.40058e+08
6.40033e+08
6.40021e+08
6.40022e+08
6.40034e+08
6.40055e+08
6.40086e+08
6.40125e+08
6.4017e+08
6.40222e+08
6.40279e+08
6.4034e+08
6.40405e+08
6.40474e+08
6.40545e+08
6.40619e+08
6.40695e+08
6.40772e+08
6.40852e+08
6.40932e+08
6.41014e+08
6.41097e+08
6.4118e+08
6.41265e+08
6.41351e+08
6.41437e+08
6.41524e+08
6.41612e+08
6.41701e+08
6.4179e+08
6.4188e+08
6.41971e+08
6.42062e+08
6.42154e+08
6.42247e+08
6.42341e+08
6.42435e+08
6.4253e+08
6.42626e+08
6.42723e+08
6.4282e+08
6.42918e+08
6.43017e+08
6.43116e+08
6.43213e+08
6.43295e+08
)
;

boundaryField
{
    sides
    {
        type            zeroGradient;
    }
    empty
    {
        type            empty;
    }
}


// ************************************************************************* //
