/*--------------------------------*- C++ -*----------------------------------*\
| =========                 |                                                 |
| \\      /  F ield         | OpenFOAM: The Open Source CFD Toolbox           |
|  \\    /   O peration     | Version:  2312                                  |
|   \\  /    A nd           | Website:  www.openfoam.com                      |
|    \\/     M anipulation  |                                                 |
\*---------------------------------------------------------------------------*/
FoamFile
{
    version     2.0;
    format      ascii;
    arch        "LSB;label=32;scalar=64";
    class       volScalarField;
    location    "0.0003";
    object      rho;
}
// * * * * * * * * * * * * * * * * * * * * * * * * * * * * * * * * * * * * * //

dimensions      [1 -3 0 0 0 0 0];

internalField   nonuniform List<scalar> 
100
(
0.473158
0.443595
0.404401
0.364346
0.326828
0.292913
0.262732
0.236053
0.212523
0.191766
0.173441
0.157258
0.142967
0.130341
0.119171
0.109351
0.102468
0.0994908
0.0988312
0.0987259
0.0987247
0.0987537
0.098784
0.0987993
0.0987966
0.098782
0.0987638
0.0987468
0.0987313
0.098715
0.0986952
0.0986708
0.0986421
0.0986102
0.098576
0.0985404
0.0985038
0.0984663
0.0984281
0.0983898
0.0983517
0.0983145
0.0982786
0.0982444
0.0982122
0.0981823
0.0981548
0.09813
0.098108
0.0980887
0.0980723
0.0980585
0.0980475
0.098039
0.0980329
0.098029
0.0980272
0.0980273
0.0980291
0.0980324
0.0980371
0.0980431
0.09805
0.0980579
0.0980666
0.098076
0.098086
0.0980965
0.0981074
0.0981187
0.0981303
0.0981422
0.0981544
0.0981667
0.0981792
0.0981919
0.0982048
0.0982177
0.0982308
0.0982441
0.0982574
0.0982708
0.0982844
0.0982981
0.0983119
0.0983258
0.0983398
0.0983539
0.0983681
0.0983824
0.0983969
0.0984115
0.0984261
0.0984409
0.0984559
0.0984709
0.0984861
0.0985013
0.0985161
0.0985286
)
;

boundaryField
{
    sides
    {
        type            zeroGradient;
    }
    empty
    {
        type            empty;
    }
}


// ************************************************************************* //
