/*--------------------------------*- C++ -*----------------------------------*\
| =========                 |                                                 |
| \\      /  F ield         | OpenFOAM: The Open Source CFD Toolbox           |
|  \\    /   O peration     | Version:  2312                                  |
|   \\  /    A nd           | Website:  www.openfoam.com                      |
|    \\/     M anipulation  |                                                 |
\*---------------------------------------------------------------------------*/
FoamFile
{
    version     2.0;
    format      ascii;
    arch        "LSB;label=32;scalar=64";
    class       volScalarField;
    location    "0.0003";
    object      T;
}
// * * * * * * * * * * * * * * * * * * * * * * * * * * * * * * * * * * * * * //

dimensions      [0 0 0 1 0 0 0];

internalField   nonuniform List<scalar> 
100
(
1.19055e+06
1.26953e+06
1.39231e+06
1.54514e+06
1.72231e+06
1.92154e+06
2.14224e+06
2.38458e+06
2.64896e+06
2.93575e+06
3.24535e+06
3.57833e+06
3.93549e+06
4.31759e+06
4.72501e+06
5.15997e+06
5.68062e+06
5.70006e+06
5.70006e+06
5.70006e+06
5.70006e+06
5.70006e+06
5.70006e+06
5.70006e+06
5.70006e+06
5.70006e+06
5.70006e+06
5.70006e+06
5.70006e+06
5.70006e+06
5.70006e+06
5.70006e+06
5.70006e+06
5.70006e+06
5.70006e+06
5.70006e+06
5.70006e+06
5.70006e+06
5.70006e+06
5.70006e+06
5.70006e+06
5.70006e+06
5.70006e+06
5.70006e+06
5.70006e+06
5.70006e+06
5.70006e+06
5.70006e+06
5.70006e+06
5.70006e+06
5.70006e+06
5.70006e+06
5.70006e+06
5.70006e+06
5.70006e+06
5.70006e+06
5.70006e+06
5.70006e+06
5.70006e+06
5.70006e+06
5.70006e+06
5.70006e+06
5.70006e+06
5.70006e+06
5.70006e+06
5.70006e+06
5.70006e+06
5.70006e+06
5.70006e+06
5.70006e+06
5.70006e+06
5.70006e+06
5.70006e+06
5.70006e+06
5.70006e+06
5.70006e+06
5.70006e+06
5.70006e+06
5.70006e+06
5.70006e+06
5.70006e+06
5.70006e+06
5.70006e+06
5.70006e+06
5.70006e+06
5.70006e+06
5.70006e+06
5.70006e+06
5.70006e+06
5.70006e+06
5.70006e+06
5.70006e+06
5.70006e+06
5.70006e+06
5.70006e+06
5.70006e+06
5.70006e+06
5.70006e+06
5.70006e+06
5.70006e+06
)
;

boundaryField
{
    sides
    {
        type            zeroGradient;
    }
    empty
    {
        type            empty;
    }
}


// ************************************************************************* //
