/*--------------------------------*- C++ -*----------------------------------*\
| =========                 |                                                 |
| \\      /  F ield         | OpenFOAM: The Open Source CFD Toolbox           |
|  \\    /   O peration     | Version:  2312                                  |
|   \\  /    A nd           | Website:  www.openfoam.com                      |
|    \\/     M anipulation  |                                                 |
\*---------------------------------------------------------------------------*/
FoamFile
{
    version     2.0;
    format      ascii;
    arch        "LSB;label=32;scalar=64";
    class       volScalarField;
    location    "0.0003";
    object      thermo:e;
}
// * * * * * * * * * * * * * * * * * * * * * * * * * * * * * * * * * * * * * //

dimensions      [0 2 -2 0 0 0 0];

internalField   nonuniform List<scalar> 
100
(
2.03536e+09
2.17039e+09
2.38028e+09
2.64157e+09
2.94445e+09
3.28506e+09
3.66238e+09
4.07667e+09
4.52865e+09
5.01896e+09
5.54825e+09
6.11751e+09
6.72811e+09
7.38133e+09
8.07787e+09
8.82147e+09
9.71158e+09
1.08698e+10
1.22017e+10
1.35786e+10
1.49631e+10
1.63464e+10
1.77234e+10
1.90895e+10
2.04404e+10
2.17725e+10
2.30828e+10
2.4368e+10
2.56251e+10
2.6851e+10
2.80431e+10
2.91988e+10
3.03161e+10
3.13932e+10
3.24286e+10
3.34211e+10
3.437e+10
3.52745e+10
3.61343e+10
3.69495e+10
3.77202e+10
3.84468e+10
3.91302e+10
3.9771e+10
4.03705e+10
4.09297e+10
4.145e+10
4.19328e+10
4.23797e+10
4.27923e+10
4.31722e+10
4.35211e+10
4.38407e+10
4.41328e+10
4.4399e+10
4.46409e+10
4.48603e+10
4.50587e+10
4.52377e+10
4.53988e+10
4.55434e+10
4.56728e+10
4.57884e+10
4.58914e+10
4.59829e+10
4.6064e+10
4.61357e+10
4.6199e+10
4.62546e+10
4.63035e+10
4.63463e+10
4.63837e+10
4.64164e+10
4.64447e+10
4.64694e+10
4.64907e+10
4.65092e+10
4.65252e+10
4.65389e+10
4.65507e+10
4.65609e+10
4.65697e+10
4.65772e+10
4.65837e+10
4.65892e+10
4.6594e+10
4.65981e+10
4.66016e+10
4.66047e+10
4.66074e+10
4.66098e+10
4.66118e+10
4.66137e+10
4.66153e+10
4.66168e+10
4.66182e+10
4.66195e+10
4.66206e+10
4.66217e+10
4.66226e+10
)
;

boundaryField
{
    sides
    {
        type            zeroGradient;
    }
    empty
    {
        type            empty;
    }
}


// ************************************************************************* //
