/*--------------------------------*- C++ -*----------------------------------*\
| =========                 |                                                 |
| \\      /  F ield         | OpenFOAM: The Open Source CFD Toolbox           |
|  \\    /   O peration     | Version:  2312                                  |
|   \\  /    A nd           | Website:  www.openfoam.com                      |
|    \\/     M anipulation  |                                                 |
\*---------------------------------------------------------------------------*/
FoamFile
{
    version     2.0;
    format      ascii;
    arch        "LSB;label=32;scalar=64";
    class       volVectorField;
    location    "0.0003";
    object      U;
}
// * * * * * * * * * * * * * * * * * * * * * * * * * * * * * * * * * * * * * //

dimensions      [0 1 -1 0 0 0 0];

internalField   nonuniform List<vector> 
100
(
(-17752 0 0)
(-17740.1 0 0)
(-17729.8 0 0)
(-17719.7 0 0)
(-17709.3 0 0)
(-17698.8 0 0)
(-17690.2 0 0)
(-17685.3 0 0)
(-17682.3 0 0)
(-17675.2 0 0)
(-17658.9 0 0)
(-17636.7 0 0)
(-17620.2 0 0)
(-17620.5 0 0)
(-17637.4 0 0)
(-17596.3 0 0)
(-15856.2 0 0)
(-13722.4 0 0)
(-13307.2 0 0)
(-13282.1 0 0)
(-13272.7 0 0)
(-13248.9 0 0)
(-13224.7 0 0)
(-13212.5 0 0)
(-13215.2 0 0)
(-13227.7 0 0)
(-13243.5 0 0)
(-13258.3 0 0)
(-13271.8 0 0)
(-13286 0 0)
(-13302.9 0 0)
(-13323.6 0 0)
(-13347.8 0 0)
(-13374.7 0 0)
(-13403.5 0 0)
(-13433.5 0 0)
(-13464.3 0 0)
(-13495.9 0 0)
(-13528 0 0)
(-13560.3 0 0)
(-13592.3 0 0)
(-13623.7 0 0)
(-13654.1 0 0)
(-13683.1 0 0)
(-13710.4 0 0)
(-13735.8 0 0)
(-13759.2 0 0)
(-13780.5 0 0)
(-13799.5 0 0)
(-13816.1 0 0)
(-13830.5 0 0)
(-13842.6 0 0)
(-13852.5 0 0)
(-13860.3 0 0)
(-13866.1 0 0)
(-13870.1 0 0)
(-13872.4 0 0)
(-13873 0 0)
(-13872.3 0 0)
(-13870.3 0 0)
(-13867.1 0 0)
(-13862.9 0 0)
(-13857.9 0 0)
(-13852.1 0 0)
(-13845.6 0 0)
(-13838.5 0 0)
(-13831 0 0)
(-13823 0 0)
(-13814.6 0 0)
(-13806 0 0)
(-13797.1 0 0)
(-13787.9 0 0)
(-13778.5 0 0)
(-13769 0 0)
(-13759.3 0 0)
(-13749.5 0 0)
(-13739.6 0 0)
(-13729.5 0 0)
(-13719.3 0 0)
(-13709 0 0)
(-13698.7 0 0)
(-13688.2 0 0)
(-13677.6 0 0)
(-13667 0 0)
(-13656.2 0 0)
(-13645.4 0 0)
(-13634.4 0 0)
(-13623.4 0 0)
(-13612.3 0 0)
(-13601.1 0 0)
(-13589.8 0 0)
(-13578.4 0 0)
(-13566.9 0 0)
(-13555.2 0 0)
(-13543.5 0 0)
(-13531.7 0 0)
(-13519.8 0 0)
(-13507.9 0 0)
(-13496.3 0 0)
(-13486.4 0 0)
)
;

boundaryField
{
    sides
    {
        type            zeroGradient;
    }
    empty
    {
        type            empty;
    }
}


// ************************************************************************* //
