/*--------------------------------*- C++ -*----------------------------------*\
| =========                 |                                                 |
| \\      /  F ield         | OpenFOAM: The Open Source CFD Toolbox           |
|  \\    /   O peration     | Version:  2312                                  |
|   \\  /    A nd           | Website:  www.openfoam.com                      |
|    \\/     M anipulation  |                                                 |
\*---------------------------------------------------------------------------*/
FoamFile
{
    version     2.0;
    format      ascii;
    arch        "LSB;label=32;scalar=64";
    class       volScalarField;
    location    "0.074";
    object      T;
}
// * * * * * * * * * * * * * * * * * * * * * * * * * * * * * * * * * * * * * //

dimensions      [0 0 0 1 0 0 0];

internalField   nonuniform List<scalar> 
100
(
196.42
209.986
203.02
217.153
208.807
221.861
213.448
224.32
216.935
225.021
219.237
224.536
220.391
223.369
220.553
221.882
219.973
220.294
218.935
218.729
217.684
217.253
216.396
215.904
215.172
214.693
214.057
213.616
213.056
212.658
212.157
211.797
211.341
211.013
210.592
210.288
209.895
209.61
209.242
208.975
208.629
208.38
208.059
207.831
207.54
207.341
207.097
206.958
206.815
206.836
206.968
207.444
208.307
209.83
211.969
214.698
217.554
220.264
222.428
224.116
225.254
226.123
226.686
227.193
227.537
227.912
228.17
228.476
228.674
228.914
229.041
229.202
229.247
229.323
229.28
229.271
229.144
229.06
228.86
228.71
228.452
228.244
227.947
227.683
227.368
227.041
226.73
226.326
226.04
225.54
225.296
224.683
224.49
223.755
223.611
222.762
222.655
221.717
221.627
220.643
)
;

boundaryField
{
    sides
    {
        type            zeroGradient;
    }
    empty
    {
        type            empty;
    }
}


// ************************************************************************* //
