/*--------------------------------*- C++ -*----------------------------------*\
| =========                 |                                                 |
| \\      /  F ield         | OpenFOAM: The Open Source CFD Toolbox           |
|  \\    /   O peration     | Version:  2312                                  |
|   \\  /    A nd           | Website:  www.openfoam.com                      |
|    \\/     M anipulation  |                                                 |
\*---------------------------------------------------------------------------*/
FoamFile
{
    version     2.0;
    format      ascii;
    arch        "LSB;label=32;scalar=64";
    class       volScalarField;
    location    "0.005";
    object      p;
}
// * * * * * * * * * * * * * * * * * * * * * * * * * * * * * * * * * * * * * //

dimensions      [1 -1 -2 0 0 0 0];

internalField   nonuniform List<scalar> 
100
(
100207
100207
100207
100207
100207
100207
100207
100207
100207
100207
100207
100207
100207
100207
100207
100207
100206
100205
100203
100197
100183
100155
100100
99994
99805.6
99488.5
98985.1
98231.1
97163.9
95733.4
93911.1
91694.7
89108.3
86197
83019.2
79639.2
76120.3
72522.3
68890.3
65296
61668.9
58372.8
54556.5
52094.1
47889.5
45919.5
42601.3
40016.7
37618
35436
33507.7
31861.5
30486.1
29478.9
28961.4
28836.6
28797.1
28641.6
28427.8
28270.1
28236.9
28328.8
28475.6
28598.7
28667.3
28678.7
28654.2
28614.7
28572.8
28531.2
28491.8
28476.9
28546.7
28757.2
28957.3
28427.9
25983.5
21327.9
16144.1
12516.9
10832.4
10253.8
10084.3
10037.6
10025.1
10021.8
10021
10020.8
10020.7
10020.7
10020.7
10020.7
10020.7
10020.7
10020.7
10020.7
10020.7
10020.7
10020.7
10020.7
)
;

boundaryField
{
    sides
    {
        type            zeroGradient;
    }
    empty
    {
        type            empty;
    }
}


// ************************************************************************* //
