/*--------------------------------*- C++ -*----------------------------------*\
| =========                 |                                                 |
| \\      /  F ield         | OpenFOAM: The Open Source CFD Toolbox           |
|  \\    /   O peration     | Version:  2312                                  |
|   \\  /    A nd           | Website:  www.openfoam.com                      |
|    \\/     M anipulation  |                                                 |
\*---------------------------------------------------------------------------*/
FoamFile
{
    version     2.0;
    format      ascii;
    arch        "LSB;label=32;scalar=64";
    class       volScalarField;
    location    "0.005";
    object      rho;
}
// * * * * * * * * * * * * * * * * * * * * * * * * * * * * * * * * * * * * * //

dimensions      [1 -3 0 0 0 0 0];

internalField   nonuniform List<scalar> 
100
(
1.16102
1.16102
1.16102
1.16102
1.16102
1.16102
1.16102
1.16102
1.16102
1.16102
1.16102
1.16102
1.16102
1.16102
1.16102
1.16102
1.16101
1.161
1.16098
1.16093
1.16081
1.16056
1.16006
1.15912
1.15745
1.15466
1.15024
1.14364
1.13433
1.12187
1.106
1.08666
1.06401
1.03839
1.01021
0.979983
0.948184
0.91528
0.881673
0.847772
0.813757
0.780103
0.74701
0.71363
0.683311
0.651941
0.620326
0.595174
0.569306
0.542914
0.518976
0.500561
0.489075
0.482304
0.474441
0.463213
0.454827
0.457447
0.470699
0.481515
0.473659
0.442296
0.396543
0.349649
0.310417
0.281556
0.262264
0.250391
0.243631
0.240027
0.238168
0.237286
0.237267
0.238388
0.240171
0.238991
0.22736
0.200523
0.165709
0.137795
0.123455
0.11825
0.116691
0.116259
0.116143
0.116113
0.116105
0.116103
0.116102
0.116102
0.116102
0.116102
0.116102
0.116102
0.116102
0.116102
0.116102
0.116102
0.116102
0.116102
)
;

boundaryField
{
    sides
    {
        type            zeroGradient;
    }
    empty
    {
        type            empty;
    }
}


// ************************************************************************* //
