/*--------------------------------*- C++ -*----------------------------------*\
| =========                 |                                                 |
| \\      /  F ield         | OpenFOAM: The Open Source CFD Toolbox           |
|  \\    /   O peration     | Version:  2312                                  |
|   \\  /    A nd           | Website:  www.openfoam.com                      |
|    \\/     M anipulation  |                                                 |
\*---------------------------------------------------------------------------*/
FoamFile
{
    version     2.0;
    format      ascii;
    arch        "LSB;label=32;scalar=64";
    class       volScalarField;
    location    "0.005";
    object      T;
}
// * * * * * * * * * * * * * * * * * * * * * * * * * * * * * * * * * * * * * //

dimensions      [0 0 0 1 0 0 0];

internalField   nonuniform List<scalar> 
100
(
300
300
300
300
300
300
300
300
300
300
300
300
300
300
300
300
300
299.999
299.997
299.993
299.985
299.966
299.927
299.853
299.72
299.491
299.12
298.554
297.734
296.609
295.139
293.302
291.095
288.534
285.646
282.469
279.043
275.411
271.59
267.714
263.412
260.089
253.854
253.734
243.604
244.823
238.707
233.701
229.675
226.87
224.42
221.245
216.665
212.448
212.178
216.385
220.072
217.631
209.925
204.071
207.211
222.627
249.601
284.3
321
354.044
379.763
397.223
407.646
413.165
415.814
417.141
418.197
419.302
419.085
413.454
397.234
369.698
338.635
315.739
304.986
301.403
300.379
300.101
300.026
300.007
300.002
300
300
300
300
300
300
300
300
300
300
300
300
300
)
;

boundaryField
{
    sides
    {
        type            zeroGradient;
    }
    empty
    {
        type            empty;
    }
}


// ************************************************************************* //
