/*--------------------------------*- C++ -*----------------------------------*\
| =========                 |                                                 |
| \\      /  F ield         | OpenFOAM: The Open Source CFD Toolbox           |
|  \\    /   O peration     | Version:  2312                                  |
|   \\  /    A nd           | Website:  www.openfoam.com                      |
|    \\/     M anipulation  |                                                 |
\*---------------------------------------------------------------------------*/
FoamFile
{
    version     2.0;
    format      ascii;
    arch        "LSB;label=32;scalar=64";
    class       volScalarField;
    location    "0.005";
    object      thermo:e;
}
// * * * * * * * * * * * * * * * * * * * * * * * * * * * * * * * * * * * * * //

dimensions      [0 2 -2 0 0 0 0];

internalField   nonuniform List<scalar> 
100
(
215760
215760
215760
215760
215760
215760
215760
215760
215760
215760
215760
215760
215760
215760
215760
215760
215760
215759
215758
215755
215749
215735
215708
215655
215558
215394
215127
214720
214130
213321
212264
210943
209355
207513
205437
203152
200688
198075
195327
192540
189446
187056
182572
182485
175200
176077
171678
168078
165182
163165
161403
159119
155826
152793
152599
155624
158276
156520
150978
146768
149026
160113
179513
204469
230863
254628
273126
285683
293179
297148
299054
300008
300767
301562
301406
297356
285691
265887
243546
227079
219346
216769
216033
215832
215779
215765
215761
215760
215760
215760
215760
215760
215760
215760
215760
215760
215760
215760
215760
215760
)
;

boundaryField
{
    sides
    {
        type            zeroGradient;
    }
    empty
    {
        type            empty;
    }
}


// ************************************************************************* //
