/*--------------------------------*- C++ -*----------------------------------*\
| =========                 |                                                 |
| \\      /  F ield         | OpenFOAM: The Open Source CFD Toolbox           |
|  \\    /   O peration     | Version:  2312                                  |
|   \\  /    A nd           | Website:  www.openfoam.com                      |
|    \\/     M anipulation  |                                                 |
\*---------------------------------------------------------------------------*/
FoamFile
{
    version     2.0;
    format      ascii;
    arch        "LSB;label=32;scalar=64";
    class       volScalarField;
    location    "0.00024";
    object      p;
}
// * * * * * * * * * * * * * * * * * * * * * * * * * * * * * * * * * * * * * //

dimensions      [1 -1 -2 0 0 0 0];

internalField   nonuniform List<scalar> 
500
(
154256
154276
154289
154298
154304
154309
154314
154318
154321
154324
154327
154329
154332
154334
154336
154338
154340
154342
154344
154346
154348
154349
154351
154353
154354
154356
154357
154359
154361
154362
154364
154365
154367
154369
154370
154372
154373
154375
154377
154378
154380
154382
154383
154385
154387
154388
154390
154392
154394
154396
154397
154399
154401
154403
154405
154407
154409
154411
154414
154416
154418
154420
154422
154425
154427
154429
154432
154434
154437
154440
154442
154445
154448
154450
154453
154456
154459
154462
154465
154469
154472
154475
154479
154482
154486
154489
154493
154497
154500
154504
154508
154513
154517
154521
154525
154530
154535
154539
154544
154549
154554
154559
154565
154570
154576
154581
154587
154593
154599
154606
154612
154619
154626
154632
154640
154647
154654
154662
154670
154678
154686
154695
154704
154713
154722
154731
154741
154751
154761
154772
154782
154793
154805
154817
154829
154841
154854
154867
154880
154894
154908
154923
154938
154953
154969
154985
155002
155019
155037
155055
155074
155094
155114
155134
155155
155177
155199
155223
155246
155271
155296
155322
155349
155376
155405
155434
155464
155496
155528
155561
155595
155630
155666
155704
155742
155782
155823
155866
155909
155954
156001
156049
156098
156149
156202
156256
156313
156370
156430
156492
156556
156621
156689
156759
156832
156906
156983
157063
157145
157230
157317
157408
157501
157597
157697
157800
157906
158015
158128
158245
158366
158490
158619
158752
158889
159030
159177
159327
159483
159644
159810
159982
160159
160341
160530
160725
160926
161133
161347
161568
161796
162031
162274
162525
162783
163050
163325
163609
163902
164204
164516
164837
165169
165511
165863
166227
166602
166988
167386
167797
168220
168656
169106
169569
170046
170538
171044
171566
172103
172657
173227
173814
174418
175041
175681
176341
177020
177718
178437
179177
179938
180721
181526
182354
183206
184082
184983
185909
186861
187840
188846
189880
190942
192033
193155
194307
195490
196705
197953
199234
200550
201901
203287
204710
206170
207668
209205
210782
212399
214058
215759
217503
219291
221124
223003
224929
226902
228923
230994
233116
235289
237514
239792
242125
244512
246956
249457
252016
254634
257312
260051
262852
265716
268644
271638
274697
277824
281019
284283
287617
291023
294501
298053
301678
305379
309156
313009
316941
320952
325044
329216
333471
337809
342231
346736
351326
356000
360757
365595
370510
375495
380540
385626
390724
395787
400738
405454
409733
413253
415490
415614
412329
403693
387009
359088
317485
263269
204198
153624
121690
107179
102120
100596
100163
100043
100010
100001
99998.5
99997.8
99997.6
99997.6
99997.6
99997.6
99997.6
99997.6
99997.6
99997.6
99997.6
99997.6
99997.6
99997.6
99997.6
99997.6
99997.6
99997.6
99997.6
99997.6
99997.6
99997.6
99997.6
99997.6
99997.6
99997.6
99997.6
99997.6
99997.6
99997.6
99997.6
99997.6
99997.6
99997.6
99997.6
99997.6
99997.6
99997.6
99997.6
99997.6
99997.6
99997.6
99997.6
99997.6
99997.6
99997.6
99997.6
99997.6
99997.6
99997.6
99997.6
99997.6
99997.6
99997.6
99997.6
99997.6
99997.6
99997.6
99997.6
99997.6
99997.6
99997.6
99997.6
99997.6
99997.6
99997.6
99997.6
99997.6
99997.6
99997.6
99997.6
99997.6
99997.6
99997.6
99997.6
99997.6
99997.6
99997.6
99997.6
99997.6
99997.6
99997.6
99997.6
99997.6
99997.6
99997.6
99997.6
99997.6
99997.6
99997.6
99997.6
99997.6
99997.6
99997.6
99997.6
99997.6
99997.6
99997.6
99997.6
99997.6
99997.6
99997.6
99997.6
99997.6
99997.6
99997.6
99997.6
99997.6
99997.6
99997.6
99997.6
99997.6
99997.6
99997.6
99997.6
99997.6
99997.6
99997.6
99997.6
99997.6
99997.6
99997.6
99997.6
)
;

boundaryField
{
    wedge0
    {
        type            wedge;
    }
    wedge1
    {
        type            wedge;
    }
    wedge2
    {
        type            wedge;
    }
    wedge3
    {
        type            wedge;
    }
    outlet
    {
        type            zeroGradient;
    }
    defaultFaces
    {
        type            empty;
    }
}


// ************************************************************************* //
