/*--------------------------------*- C++ -*----------------------------------*\
| =========                 |                                                 |
| \\      /  F ield         | OpenFOAM: The Open Source CFD Toolbox           |
|  \\    /   O peration     | Version:  2312                                  |
|   \\  /    A nd           | Website:  www.openfoam.com                      |
|    \\/     M anipulation  |                                                 |
\*---------------------------------------------------------------------------*/
FoamFile
{
    version     2.0;
    format      ascii;
    arch        "LSB;label=32;scalar=64";
    class       volScalarField;
    location    "0.00024";
    object      rho;
}
// * * * * * * * * * * * * * * * * * * * * * * * * * * * * * * * * * * * * * //

dimensions      [1 -3 0 0 0 0 0];

internalField   nonuniform List<scalar> 
500
(
0.00424914
0.00425028
0.00425199
0.00425437
0.00425743
0.00426121
0.00426571
0.00427094
0.00427691
0.00428362
0.00429107
0.00429927
0.00430822
0.00431793
0.00432841
0.00433965
0.00435167
0.00436448
0.00437807
0.00439245
0.00440764
0.00442363
0.00444045
0.00445809
0.00447656
0.00449588
0.00451605
0.00453709
0.00455901
0.0045818
0.0046055
0.00463011
0.00465564
0.0046821
0.00470951
0.00473789
0.00476724
0.00479759
0.00482895
0.00486133
0.00489475
0.00492924
0.0049648
0.00500146
0.00503923
0.00507814
0.00511821
0.00515946
0.00520191
0.00524559
0.00529051
0.00533671
0.0053842
0.00543302
0.0054832
0.00553475
0.00558771
0.0056421
0.00569797
0.00575534
0.00581424
0.00587471
0.00593678
0.00600049
0.00606588
0.00613298
0.00620183
0.00627247
0.00634495
0.00641931
0.0064956
0.00657385
0.00665412
0.00673645
0.0068209
0.00690752
0.00699636
0.00708748
0.00718093
0.00727677
0.00737507
0.00747588
0.00757927
0.00768531
0.00779406
0.0079056
0.00801999
0.00813732
0.00825766
0.00838109
0.0085077
0.00863756
0.00877077
0.00890741
0.00904758
0.00919137
0.00933889
0.00949024
0.00964551
0.00980483
0.0099683
0.010136
0.0103082
0.0104848
0.0106661
0.0108521
0.011043
0.011239
0.0114402
0.0116467
0.0118587
0.0120763
0.0122997
0.0125291
0.0127647
0.0130066
0.013255
0.0135101
0.0137721
0.0140412
0.0143176
0.0146015
0.0148932
0.0151929
0.0155007
0.0158171
0.0161421
0.0164761
0.0168194
0.0171721
0.0175347
0.0179073
0.0182904
0.0186841
0.0190889
0.019505
0.0199329
0.0203728
0.0208252
0.0212904
0.0217687
0.0222607
0.0227666
0.023287
0.0238223
0.0243729
0.0249392
0.0255219
0.0261213
0.026738
0.0273725
0.0280254
0.0286971
0.0293884
0.0300997
0.0308317
0.031585
0.0323603
0.0331581
0.0339793
0.0348246
0.0356945
0.03659
0.0375117
0.0384604
0.039437
0.0404424
0.0414772
0.0425425
0.0436392
0.0447681
0.0459303
0.0471267
0.0483583
0.0496263
0.0509315
0.0522752
0.0536584
0.0550823
0.0565482
0.0580571
0.0596103
0.0612091
0.0628549
0.0645488
0.0662924
0.068087
0.069934
0.0718349
0.0737912
0.0758043
0.077876
0.0800077
0.0822012
0.084458
0.0867799
0.0891685
0.0916258
0.0941534
0.0967532
0.0994271
0.102177
0.105005
0.107913
0.110902
0.113976
0.117136
0.120383
0.123722
0.127152
0.130677
0.1343
0.138021
0.141844
0.145771
0.149804
0.153945
0.158198
0.162564
0.167046
0.171646
0.176367
0.181212
0.186183
0.191282
0.196513
0.201877
0.207378
0.213018
0.2188
0.224727
0.2308
0.237024
0.2434
0.249931
0.25662
0.26347
0.270483
0.277663
0.285011
0.292531
0.300225
0.308096
0.316147
0.32438
0.332798
0.341403
0.350199
0.359188
0.368371
0.377753
0.387336
0.397121
0.407112
0.417311
0.42772
0.438342
0.449179
0.460233
0.471507
0.483003
0.494723
0.506669
0.518844
0.531249
0.543886
0.556758
0.569866
0.583212
0.596798
0.610626
0.624697
0.639014
0.653577
0.668389
0.683451
0.698764
0.71433
0.73015
0.746226
0.762558
0.779148
0.795998
0.813108
0.830479
0.848112
0.866009
0.88417
0.902596
0.921288
0.940246
0.959472
0.978966
0.998729
1.01876
1.03906
1.05963
1.08048
1.10159
1.12298
1.14463
1.16656
1.18876
1.21124
1.23399
1.25701
1.2803
1.30387
1.32771
1.35182
1.37621
1.40087
1.42581
1.45102
1.4765
1.50226
1.52829
1.5546
1.58118
1.60803
1.63516
1.66257
1.69025
1.7182
1.74643
1.77494
1.80372
1.83278
1.86212
1.89173
1.92163
1.9518
1.98226
2.013
2.04401
2.07531
2.10689
2.13876
2.17091
2.20335
2.23608
2.2691
2.3024
2.336
2.36989
2.40407
2.43853
2.47326
2.50826
2.54349
2.57891
2.61448
2.65009
2.6856
2.72077
2.75521
2.78831
2.81908
2.84589
2.86615
2.8757
2.86806
2.83342
2.75792
2.62447
2.41795
2.13811
1.81723
1.52241
1.31864
1.2166
1.17808
1.1659
1.16237
1.16138
1.1611
1.16103
1.16101
1.161
1.161
1.161
1.161
1.161
1.161
1.161
1.161
1.161
1.161
1.161
1.161
1.161
1.161
1.161
1.161
1.161
1.161
1.161
1.161
1.161
1.161
1.161
1.161
1.161
1.161
1.161
1.161
1.161
1.161
1.161
1.161
1.161
1.161
1.161
1.161
1.161
1.161
1.161
1.161
1.161
1.161
1.161
1.161
1.161
1.161
1.161
1.161
1.161
1.161
1.161
1.161
1.161
1.161
1.161
1.161
1.161
1.161
1.161
1.161
1.161
1.161
1.161
1.161
1.161
1.161
1.161
1.161
1.161
1.161
1.161
1.161
1.161
1.161
1.161
1.161
1.161
1.161
1.161
1.161
1.161
1.161
1.161
1.161
1.161
1.161
1.161
1.161
1.161
1.161
1.161
1.161
1.161
1.161
1.161
1.161
1.161
1.161
1.161
1.161
1.161
1.161
1.161
1.161
1.161
1.161
1.161
1.161
1.161
1.161
1.161
1.161
1.161
1.161
1.161
1.161
1.161
1.161
1.161
1.161
1.161
1.161
)
;

boundaryField
{
    wedge0
    {
        type            wedge;
    }
    wedge1
    {
        type            wedge;
    }
    wedge2
    {
        type            wedge;
    }
    wedge3
    {
        type            wedge;
    }
    outlet
    {
        type            zeroGradient;
    }
    defaultFaces
    {
        type            empty;
    }
}


// ************************************************************************* //
