/*--------------------------------*- C++ -*----------------------------------*\
| =========                 |                                                 |
| \\      /  F ield         | OpenFOAM: The Open Source CFD Toolbox           |
|  \\    /   O peration     | Version:  2312                                  |
|   \\  /    A nd           | Website:  www.openfoam.com                      |
|    \\/     M anipulation  |                                                 |
\*---------------------------------------------------------------------------*/
FoamFile
{
    version     2.0;
    format      ascii;
    arch        "LSB;label=32;scalar=64";
    class       volScalarField;
    location    "0.00024";
    object      T;
}
// * * * * * * * * * * * * * * * * * * * * * * * * * * * * * * * * * * * * * //

dimensions      [0 0 0 1 0 0 0];

internalField   nonuniform List<scalar> 
500
(
126446
126429
126388
126325
126239
126131
126002
125851
125678
125484
125268
125031
124773
124494
124195
123875
123534
123173
122792
122392
121971
121532
121073
120595
120099
119584
119051
118500
117932
117346
116743
116124
115489
114837
114170
113487
112790
112077
111351
110610
109856
109089
108308
107516
106711
105895
105067
104228
103379
102519
101650
100771
99883.4
98987.1
98082.7
97170.4
96250.7
95324
94390.7
93451.1
92505.7
91554.8
90598.9
89638.3
88673.5
87704.7
86732.4
85756.9
84778.7
83798.1
82815.4
81831
80845.3
79858.7
78871.4
77883.9
76896.4
75909.3
74922.9
73937.6
72953.7
71971.5
70991.3
70013.3
69038
68065.5
67096.3
66130.4
65168.3
64210.2
63256.3
62307
61362.4
60422.7
59488.3
58559.4
57636.1
56718.7
55807.3
54902.3
54003.7
53111.8
52226.8
51348.8
50477.9
49614.4
48758.4
47910
47069.4
46236.8
45412.1
44595.6
43787.4
42987.6
42196.3
41413.5
40639.3
39874
39117.4
38369.7
37631
36901.3
36180.6
35469.1
34766.6
34073.4
33389.4
32714.7
32049.1
31392.9
30746
30108.3
29479.9
28860.8
28251
27650.5
27059.2
26477.1
25904.2
25340.5
24785.9
24240.5
23704
23176.6
22658.2
22148.7
21648
21156.2
20673
20198.6
19732.8
19275.5
18826.7
18386.4
17954.3
17530.5
17114.9
16707.3
16307.8
15916.2
15532.4
15156.4
14788
14427.2
14073.9
13728
13389.3
13057.9
12733.5
12416.2
12105.7
11802.1
11505.1
11214.8
10931
10653.6
10382.5
10117.6
9858.79
9606.01
9359.14
9118.08
8882.72
8652.97
8428.73
8209.9
7996.38
7788.08
7584.89
7386.72
7193.47
7005.05
6821.36
6642.31
6467.8
6297.74
6132.05
5970.62
5813.38
5660.22
5511.07
5365.83
5224.42
5086.76
4952.75
4822.33
4695.41
4571.9
4451.73
4334.82
4221.09
4110.48
4002.89
3898.27
3796.53
3697.61
3601.44
3507.96
3417.08
3328.75
3242.91
3159.48
3078.41
2999.64
2923.11
2848.75
2776.52
2706.36
2638.2
2572
2507.71
2445.27
2384.63
2325.75
2268.58
2213.07
2159.17
2106.84
2056.04
2006.72
1958.85
1912.37
1867.27
1823.48
1780.99
1739.74
1699.71
1660.86
1623.16
1586.58
1551.08
1516.63
1483.2
1450.76
1419.29
1388.75
1359.12
1330.38
1302.49
1275.44
1249.19
1223.73
1199.03
1175.08
1151.84
1129.3
1107.44
1086.23
1065.67
1045.73
1026.39
1007.63
989.446
971.813
954.717
938.142
922.073
906.496
891.397
876.762
862.578
848.833
835.513
822.608
810.104
797.992
786.26
774.897
763.894
753.24
742.925
732.941
723.278
713.928
704.882
696.132
687.669
679.487
671.577
663.933
656.547
649.413
642.524
635.873
629.454
623.262
617.291
611.534
605.986
600.642
595.497
590.546
585.783
581.205
576.806
572.582
568.529
564.642
560.917
557.35
553.938
550.676
547.56
544.588
541.755
539.058
536.494
534.059
531.751
529.565
527.5
525.551
523.717
521.994
520.379
518.869
517.462
516.156
514.947
513.834
512.813
511.882
511.039
510.281
509.606
509.011
508.494
508.052
507.682
507.381
507.144
506.966
506.838
506.749
506.68
506.605
506.481
506.242
505.78
504.925
503.397
500.749
496.255
488.769
476.567
457.341
428.877
391.386
351.474
321.435
306.851
301.927
300.526
300.143
300.039
300.011
300.003
300.001
300
300
300
300
300
300
300
300
300
300
300
300
300
300
300
300
300
300
300
300
300
300
300
300
300
300
300
300
300
300
300
300
300
300
300
300
300
300
300
300
300
300
300
300
300
300
300
300
300
300
300
300
300
300
300
300
300
300
300
300
300
300
300
300
300
300
300
300
300
300
300
300
300
300
300
300
300
300
300
300
300
300
300
300
300
300
300
300
300
300
300
300
300
300
300
300
300
300
300
300
300
300
300
300
300
300
300
300
300
300
300
300
300
300
300
300
300
300
300
300
300
300
)
;

boundaryField
{
    wedge0
    {
        type            wedge;
    }
    wedge1
    {
        type            wedge;
    }
    wedge2
    {
        type            wedge;
    }
    wedge3
    {
        type            wedge;
    }
    outlet
    {
        type            zeroGradient;
    }
    defaultFaces
    {
        type            empty;
    }
}


// ************************************************************************* //
