/*--------------------------------*- C++ -*----------------------------------*\
| =========                 |                                                 |
| \\      /  F ield         | OpenFOAM: The Open Source CFD Toolbox           |
|  \\    /   O peration     | Version:  2312                                  |
|   \\  /    A nd           | Website:  www.openfoam.com                      |
|    \\/     M anipulation  |                                                 |
\*---------------------------------------------------------------------------*/
FoamFile
{
    version     2.0;
    format      ascii;
    arch        "LSB;label=32;scalar=64";
    class       volScalarField;
    location    "0.00024";
    object      thermo:e;
}
// * * * * * * * * * * * * * * * * * * * * * * * * * * * * * * * * * * * * * //

dimensions      [0 2 -2 0 0 0 0];

internalField   nonuniform List<scalar> 
500
(
9.07502e+07
9.0738e+07
9.07088e+07
9.06632e+07
9.06018e+07
9.05245e+07
9.04316e+07
9.0323e+07
9.0199e+07
9.00596e+07
8.99049e+07
8.97349e+07
8.95498e+07
8.93497e+07
8.91347e+07
8.89049e+07
8.86604e+07
8.84015e+07
8.81281e+07
8.78405e+07
8.75389e+07
8.72233e+07
8.68939e+07
8.6551e+07
8.61947e+07
8.58253e+07
8.54428e+07
8.50474e+07
8.46395e+07
8.42192e+07
8.37868e+07
8.33423e+07
8.28862e+07
8.24186e+07
8.19397e+07
8.14497e+07
8.09491e+07
8.04379e+07
7.99164e+07
7.93849e+07
7.88437e+07
7.82929e+07
7.7733e+07
7.71641e+07
7.65865e+07
7.60005e+07
7.54064e+07
7.48044e+07
7.41948e+07
7.35779e+07
7.2954e+07
7.23234e+07
7.16863e+07
7.10431e+07
7.03939e+07
6.97392e+07
6.90791e+07
6.8414e+07
6.77442e+07
6.70698e+07
6.63913e+07
6.57089e+07
6.50229e+07
6.43334e+07
6.3641e+07
6.29457e+07
6.22478e+07
6.15478e+07
6.08457e+07
6.01419e+07
5.94366e+07
5.87301e+07
5.80227e+07
5.73146e+07
5.6606e+07
5.58972e+07
5.51885e+07
5.44801e+07
5.37722e+07
5.3065e+07
5.23589e+07
5.16539e+07
5.09504e+07
5.02486e+07
4.95486e+07
4.88506e+07
4.8155e+07
4.74618e+07
4.67713e+07
4.60837e+07
4.53991e+07
4.47177e+07
4.40398e+07
4.33654e+07
4.26948e+07
4.20281e+07
4.13654e+07
4.0707e+07
4.00529e+07
3.94034e+07
3.87585e+07
3.81184e+07
3.74832e+07
3.6853e+07
3.6228e+07
3.56083e+07
3.49939e+07
3.4385e+07
3.37817e+07
3.31841e+07
3.25923e+07
3.20063e+07
3.14262e+07
3.08522e+07
3.02842e+07
2.97224e+07
2.91669e+07
2.86175e+07
2.80746e+07
2.75379e+07
2.70078e+07
2.6484e+07
2.59668e+07
2.54561e+07
2.4952e+07
2.44545e+07
2.39636e+07
2.34793e+07
2.30017e+07
2.25307e+07
2.20664e+07
2.16087e+07
2.11577e+07
2.07134e+07
2.02758e+07
1.98447e+07
1.94204e+07
1.90026e+07
1.85915e+07
1.81869e+07
1.77889e+07
1.73974e+07
1.70124e+07
1.66339e+07
1.62618e+07
1.58961e+07
1.55368e+07
1.51838e+07
1.4837e+07
1.44965e+07
1.41622e+07
1.3834e+07
1.3512e+07
1.31959e+07
1.28858e+07
1.25816e+07
1.22833e+07
1.19908e+07
1.17041e+07
1.1423e+07
1.11476e+07
1.08777e+07
1.06134e+07
1.03544e+07
1.01008e+07
9.85257e+06
9.60952e+06
9.37164e+06
9.13885e+06
8.91108e+06
8.68828e+06
8.47035e+06
8.25724e+06
8.04887e+06
7.84517e+06
7.64607e+06
7.4515e+06
7.26139e+06
7.07566e+06
6.89424e+06
6.71706e+06
6.54404e+06
6.37513e+06
6.21024e+06
6.0493e+06
5.89225e+06
5.73901e+06
5.5895e+06
5.44368e+06
5.30145e+06
5.16275e+06
5.02752e+06
4.89569e+06
4.76718e+06
4.64194e+06
4.51989e+06
4.40097e+06
4.28512e+06
4.17226e+06
4.06234e+06
3.95529e+06
3.85105e+06
3.74957e+06
3.65076e+06
3.55459e+06
3.46099e+06
3.36989e+06
3.28125e+06
3.19501e+06
3.1111e+06
3.02948e+06
2.95009e+06
2.87288e+06
2.79779e+06
2.72477e+06
2.65378e+06
2.58476e+06
2.51766e+06
2.45244e+06
2.38905e+06
2.32743e+06
2.26756e+06
2.20938e+06
2.15284e+06
2.09792e+06
2.04455e+06
1.99271e+06
1.94235e+06
1.89344e+06
1.84593e+06
1.79978e+06
1.75497e+06
1.71145e+06
1.66919e+06
1.62816e+06
1.58832e+06
1.54963e+06
1.51208e+06
1.47562e+06
1.44022e+06
1.40586e+06
1.37251e+06
1.34014e+06
1.30871e+06
1.27821e+06
1.24861e+06
1.21988e+06
1.192e+06
1.16494e+06
1.13869e+06
1.11321e+06
1.08848e+06
1.06449e+06
1.04121e+06
1.01862e+06
996707
975443
954813
934799
915382
896546
878273
860547
843353
826675
810498
794808
779590
764831
750518
736637
723177
710126
697470
685200
673304
661772
650592
639755
629252
619072
609207
599648
590385
581412
572719
564299
556144
548246
540600
533197
526032
519097
512386
505894
499614
493540
487668
481991
476505
471204
466084
461139
456366
451759
447315
443029
438898
434916
431081
427388
423835
420417
417131
413974
410942
408033
405243
402570
400010
397561
395220
392984
390851
388818
386882
385042
383294
381637
380069
378587
377188
375872
374635
373476
372392
371383
370445
369578
368778
368046
367378
366772
366228
365744
365317
364946
364629
364363
364147
363977
363850
363758
363694
363644
363590
363502
363330
362999
362384
361288
359388
356162
350789
342032
328234
307805
280898
252253
230694
220227
216693
215687
215413
215338
215318
215312
215311
215310
215310
215310
215310
215310
215310
215310
215310
215310
215310
215310
215310
215310
215310
215310
215310
215310
215310
215310
215310
215310
215310
215310
215310
215310
215310
215310
215310
215310
215310
215310
215310
215310
215310
215310
215310
215310
215310
215310
215310
215310
215310
215310
215310
215310
215310
215310
215310
215310
215310
215310
215310
215310
215310
215310
215310
215310
215310
215310
215310
215310
215310
215310
215310
215310
215310
215310
215310
215310
215310
215310
215310
215310
215310
215310
215310
215310
215310
215310
215310
215310
215310
215310
215310
215310
215310
215310
215310
215310
215310
215310
215310
215310
215310
215310
215310
215310
215310
215310
215310
215310
215310
215310
215310
215310
215310
215310
215310
215310
215310
215310
215310
215310
215310
215310
215310
215310
215310
215310
215310
215310
215310
)
;

boundaryField
{
    wedge0
    {
        type            wedge;
    }
    wedge1
    {
        type            wedge;
    }
    wedge2
    {
        type            wedge;
    }
    wedge3
    {
        type            wedge;
    }
    outlet
    {
        type            zeroGradient;
    }
    defaultFaces
    {
        type            empty;
    }
}


// ************************************************************************* //
