/*--------------------------------*- C++ -*----------------------------------*\
| =========                 |                                                 |
| \\      /  F ield         | OpenFOAM: The Open Source CFD Toolbox           |
|  \\    /   O peration     | Version:  2312                                  |
|   \\  /    A nd           | Website:  www.openfoam.com                      |
|    \\/     M anipulation  |                                                 |
\*---------------------------------------------------------------------------*/
FoamFile
{
    version     2.0;
    format      ascii;
    arch        "LSB;label=32;scalar=64";
    class       volVectorField;
    location    "0.00024";
    object      U;
}
// * * * * * * * * * * * * * * * * * * * * * * * * * * * * * * * * * * * * * //

dimensions      [0 1 -1 0 0 0 0];

internalField   nonuniform List<vector> 
500
(
(0.846461 -3.33435e-10 3.34709e-10)
(1.52399 -3.23072e-10 3.23386e-10)
(2.27969 -3.32057e-10 3.32267e-10)
(3.08234 -3.31058e-10 3.32324e-10)
(3.90373 -3.13385e-10 3.14822e-10)
(4.73417 -3.13396e-10 3.14945e-10)
(5.56964 -3.12003e-10 3.12469e-10)
(6.40818 -3.08086e-10 3.06864e-10)
(7.24873 -2.9637e-10 2.94505e-10)
(8.09068 -2.80299e-10 2.77903e-10)
(8.93363 -2.65423e-10 2.63686e-10)
(9.77733 -2.52246e-10 2.50475e-10)
(10.6216 -2.40084e-10 2.38767e-10)
(11.4663 -2.27571e-10 2.26006e-10)
(12.3114 -2.14916e-10 2.13111e-10)
(13.1568 -2.03372e-10 2.00836e-10)
(14.0024 -1.91871e-10 1.90681e-10)
(14.8482 -1.85575e-10 1.85564e-10)
(15.6942 -1.8064e-10 1.80649e-10)
(16.5404 -1.7777e-10 1.77764e-10)
(17.3867 -1.7572e-10 1.7563e-10)
(18.233 -1.73962e-10 1.73957e-10)
(19.0795 -1.72164e-10 1.72156e-10)
(19.9261 -1.70197e-10 1.70185e-10)
(20.7728 -1.67163e-10 1.67153e-10)
(21.6195 -1.63264e-10 1.63258e-10)
(22.4663 -1.60076e-10 1.60084e-10)
(23.3132 -1.56539e-10 1.5654e-10)
(24.1601 -1.50499e-10 1.505e-10)
(25.007 -1.4575e-10 1.45754e-10)
(25.8541 -1.40544e-10 1.40538e-10)
(26.7011 -1.36349e-10 1.36351e-10)
(27.5482 -1.30353e-10 1.30363e-10)
(28.3954 -1.25034e-10 1.25029e-10)
(29.2426 -1.20079e-10 1.20073e-10)
(30.0898 -1.14866e-10 1.1486e-10)
(30.9371 -1.10489e-10 1.10483e-10)
(31.7843 -1.05866e-10 1.05866e-10)
(32.6317 -1.01331e-10 1.01331e-10)
(33.479 -9.69569e-11 9.69569e-11)
(34.3264 -9.14234e-11 9.14234e-11)
(35.1739 -8.53038e-11 8.53038e-11)
(36.0213 -7.91155e-11 7.91155e-11)
(36.8688 -7.33247e-11 7.33247e-11)
(37.7163 -6.78001e-11 6.78001e-11)
(38.5639 -6.26936e-11 6.26936e-11)
(39.4115 -5.6848e-11 5.6848e-11)
(40.2591 -5.12177e-11 5.12177e-11)
(41.1067 -4.52431e-11 4.52431e-11)
(41.9544 -4.00486e-11 4.00486e-11)
(42.8021 -3.52334e-11 3.52334e-11)
(43.6498 -3.01223e-11 3.01223e-11)
(44.4976 -2.56833e-11 2.56833e-11)
(45.3454 -2.15182e-11 2.15182e-11)
(46.1932 -1.71819e-11 1.71819e-11)
(47.041 -1.34496e-11 1.34496e-11)
(47.8889 -9.42446e-12 9.42446e-12)
(48.7368 -5.94364e-12 5.94364e-12)
(49.5848 -2.96675e-12 2.96675e-12)
(50.4327 -1.29734e-13 1.29734e-13)
(51.2808 1.54592e-12 -1.54592e-12)
(52.1288 2.83038e-12 -2.83038e-12)
(52.9769 4.0716e-12 -4.0716e-12)
(53.825 4.96206e-12 -4.96206e-12)
(54.6731 5.5201e-12 -5.5201e-12)
(55.5213 5.77072e-12 -5.77072e-12)
(56.3695 6.23791e-12 -6.23791e-12)
(57.2178 6.96876e-12 -6.96876e-12)
(58.0661 6.88299e-12 -6.88299e-12)
(58.9144 6.7136e-12 -6.7136e-12)
(59.7627 6.54413e-12 -6.54413e-12)
(60.6112 6.29906e-12 -6.29906e-12)
(61.4596 6.1076e-12 -6.1076e-12)
(62.3081 5.96689e-12 -5.96689e-12)
(63.1566 5.92271e-12 -5.92088e-12)
(64.0052 6.0878e-12 -6.08664e-12)
(64.8538 5.64449e-12 -5.64424e-12)
(65.7024 5.40887e-12 -5.40722e-12)
(66.5511 5.19509e-12 -5.19235e-12)
(67.3999 4.81779e-12 -4.81547e-12)
(68.2487 4.27363e-12 -4.27135e-12)
(69.0975 3.56981e-12 -3.56847e-12)
(69.9464 2.71617e-12 -2.71596e-12)
(70.7954 1.58356e-12 -1.57912e-12)
(71.6443 3.16186e-13 -3.08357e-13)
(72.4934 -9.46867e-13 9.58003e-13)
(73.3425 -1.74201e-12 1.75564e-12)
(74.1917 -2.66798e-12 2.66877e-12)
(75.0409 -3.16187e-12 3.15027e-12)
(75.8901 -3.55676e-12 3.49391e-12)
(76.7395 -3.88381e-12 3.7759e-12)
(77.5889 -3.82569e-12 3.67336e-12)
(78.4383 -3.73195e-12 3.61427e-12)
(79.2878 -3.52365e-12 3.43911e-12)
(80.1374 -3.08693e-12 3.03432e-12)
(80.9871 -2.54462e-12 2.41143e-12)
(81.8368 -2.20274e-12 1.95431e-12)
(82.6866 -1.7234e-12 1.71892e-12)
(83.5365 -1.26356e-12 1.27992e-12)
(84.3864 -8.00816e-13 8.40145e-13)
(85.2364 -5.41964e-13 6.04598e-13)
(86.0865 -3.72053e-13 4.52617e-13)
(86.9367 -1.02298e-13 1.16443e-13)
(87.7869 2.48914e-13 -2.68449e-13)
(88.6373 7.7474e-13 -8.26859e-13)
(89.4877 1.47067e-12 -1.50811e-12)
(90.3382 1.99322e-12 -2.01694e-12)
(91.1888 2.68255e-12 -2.69245e-12)
(92.0395 3.21372e-12 -3.20812e-12)
(92.8903 3.66457e-12 -3.66295e-12)
(93.7412 3.97204e-12 -3.97197e-12)
(94.5922 4.4268e-12 -4.42659e-12)
(95.4434 4.46061e-12 -4.46014e-12)
(96.2946 4.63769e-12 -4.63721e-12)
(97.1459 4.95415e-12 -4.95343e-12)
(97.9973 4.88384e-12 -4.8826e-12)
(98.8489 4.43528e-12 -4.43279e-12)
(99.7006 4.11327e-12 -4.1097e-12)
(100.552 3.91771e-12 -3.91261e-12)
(101.404 3.83478e-12 -3.83107e-12)
(102.256 4.10478e-12 -4.103e-12)
(103.109 4.27317e-12 -4.27132e-12)
(103.961 4.12104e-12 -4.12009e-12)
(104.813 3.86911e-12 -3.86799e-12)
(105.666 3.5658e-12 -3.56527e-12)
(106.519 3.28916e-12 -3.28836e-12)
(107.372 2.91722e-12 -2.91672e-12)
(108.225 2.45058e-12 -2.44984e-12)
(109.078 1.91383e-12 -1.91351e-12)
(109.931 1.37845e-12 -1.378e-12)
(110.785 9.10787e-13 -9.10145e-13)
(111.639 5.09859e-13 -5.09149e-13)
(112.493 1.77159e-13 -1.7637e-13)
(113.347 -8.30755e-14 8.38666e-14)
(114.201 -3.43266e-13 3.43635e-13)
(115.056 -3.73565e-13 3.73543e-13)
(115.91 -1.74938e-13 1.74925e-13)
(116.765 -1.97176e-13 1.97177e-13)
(117.621 -1.88973e-13 1.88973e-13)
(118.476 -1.87831e-13 1.87831e-13)
(119.332 -1.86933e-13 1.86933e-13)
(120.187 -1.85769e-13 1.85769e-13)
(121.044 -2.16196e-13 2.16196e-13)
(121.9 -1.83014e-13 1.83014e-13)
(122.757 -1.81724e-13 1.81724e-13)
(123.614 -1.59333e-13 1.59333e-13)
(124.471 -1.9667e-13 1.9667e-13)
(125.328 -1.79123e-13 1.79123e-13)
(126.186 -1.36984e-13 1.36965e-13)
(127.044 -3.83363e-14 3.85124e-14)
(127.902 -9.84328e-14 9.87972e-14)
(128.761 -1.75081e-13 1.75209e-13)
(129.62 -1.24959e-13 1.25295e-13)
(130.48 -7.58489e-14 7.59696e-14)
(131.339 -1.72473e-13 1.7239e-13)
(132.199 -1.7068e-13 1.70787e-13)
(133.06 -1.73915e-13 1.73944e-13)
(133.921 -2.2407e-13 2.2416e-13)
(134.782 -1.43979e-13 1.44076e-13)
(135.644 -1.90639e-13 1.90771e-13)
(136.506 -1.98046e-13 1.98064e-13)
(137.369 -1.65354e-13 1.65294e-13)
(138.232 -1.23369e-13 1.23436e-13)
(139.095 -1.98279e-13 1.98407e-13)
(139.959 -1.62589e-13 1.6254e-13)
(140.824 -1.61626e-13 1.61688e-13)
(141.689 -1.54623e-13 1.5453e-13)
(142.554 -1.11931e-13 1.11804e-13)
(143.42 -1.72578e-13 1.7222e-13)
(144.287 -2.73628e-13 2.73065e-13)
(145.154 -4.18199e-13 4.17385e-13)
(146.022 -6.0996e-13 6.08917e-13)
(146.891 -7.25218e-13 7.23944e-13)
(147.76 -8.287e-13 8.28482e-13)
(148.63 -9.26427e-13 9.26276e-13)
(149.5 -9.48718e-13 9.48618e-13)
(150.371 -8.90852e-13 8.90772e-13)
(151.243 -8.03789e-13 8.03781e-13)
(152.116 -6.85044e-13 6.84989e-13)
(152.99 -4.75598e-13 4.75545e-13)
(153.864 -3.26548e-13 3.26529e-13)
(154.739 -2.46561e-13 2.46605e-13)
(155.615 -1.86081e-13 1.86131e-13)
(156.492 -1.48197e-13 1.48161e-13)
(157.37 -1.47718e-13 1.47609e-13)
(158.249 -1.36078e-13 1.36115e-13)
(159.129 -7.74347e-14 7.74877e-14)
(160.01 -4.33586e-14 4.30561e-14)
(160.892 0 0)
(161.775 2.96497e-14 -2.96497e-14)
(162.659 7.60874e-14 -7.60874e-14)
(163.545 8.8319e-14 -8.8319e-14)
(164.431 6.25221e-14 -6.25221e-14)
(165.319 3.12652e-14 -3.12652e-14)
(166.208 3.43581e-14 -3.43581e-14)
(167.099 0 0)
(167.991 -3.5308e-14 3.53813e-14)
(168.884 -4.06191e-14 4.07563e-14)
(169.779 -1.15796e-14 1.17685e-14)
(170.675 5.76606e-14 -5.74153e-14)
(171.573 1.06404e-13 -1.06015e-13)
(172.472 1.32247e-13 -1.31808e-13)
(173.373 1.47446e-13 -1.47045e-13)
(174.276 1.35285e-13 -1.34859e-13)
(175.181 9.06775e-14 -9.03176e-14)
(176.087 6.80894e-14 -6.77303e-14)
(176.996 7.12826e-14 -7.09355e-14)
(177.906 4.65863e-14 -4.62913e-14)
(178.819 4.55453e-14 -4.52764e-14)
(179.733 1.63657e-14 -1.61157e-14)
(180.65 -4.15653e-15 4.44197e-15)
(181.569 -2.47858e-14 2.50497e-14)
(182.49 -7.77424e-14 7.79457e-14)
(183.414 -1.19759e-13 1.19846e-13)
(184.34 -1.74307e-13 1.74395e-13)
(185.269 -2.21644e-13 2.21717e-13)
(186.2 -2.1196e-13 2.12009e-13)
(187.135 -1.78369e-13 1.78432e-13)
(188.072 -1.51439e-13 1.51495e-13)
(189.011 -1.36198e-13 1.36204e-13)
(189.954 -1.3004e-13 1.30043e-13)
(190.9 -1.23902e-13 1.2388e-13)
(191.849 -1.18411e-13 1.18396e-13)
(192.802 -1.02155e-13 1.02155e-13)
(193.758 -6.24886e-14 6.24886e-14)
(194.717 -7.12103e-14 7.12103e-14)
(195.68 -8.77945e-14 8.77945e-14)
(196.647 -1.32035e-13 1.32035e-13)
(197.617 -1.37481e-13 1.37481e-13)
(198.592 -1.66659e-13 1.66659e-13)
(199.571 -1.95244e-13 1.95244e-13)
(200.553 -1.84291e-13 1.84291e-13)
(201.541 -1.88272e-13 1.88272e-13)
(202.532 -1.79961e-13 1.79961e-13)
(203.529 -1.88695e-13 1.88695e-13)
(204.53 -1.88196e-13 1.88196e-13)
(205.536 -1.74573e-13 1.74573e-13)
(206.547 -1.74547e-13 1.74547e-13)
(207.563 -1.62038e-13 1.62038e-13)
(208.584 -1.62676e-13 1.62676e-13)
(209.611 -1.8299e-13 1.8299e-13)
(210.644 -1.8544e-13 1.8544e-13)
(211.683 -1.78267e-13 1.78267e-13)
(212.727 -1.27033e-13 1.27033e-13)
(213.778 -9.09432e-14 9.09432e-14)
(214.835 -7.89011e-14 7.89011e-14)
(215.899 -1.03904e-13 1.03904e-13)
(216.969 -1.05261e-13 1.05261e-13)
(218.046 -9.64636e-14 9.64636e-14)
(219.131 -1.25153e-13 1.25153e-13)
(220.222 -1.36524e-13 1.36524e-13)
(221.321 -1.46437e-13 1.46437e-13)
(222.428 -1.54603e-13 1.54603e-13)
(223.543 -1.6044e-13 1.6044e-13)
(224.666 -1.62834e-13 1.62834e-13)
(225.797 -1.59643e-13 1.59643e-13)
(226.936 -1.6542e-13 1.6542e-13)
(228.085 -1.71755e-13 1.71755e-13)
(229.242 -1.53309e-13 1.53309e-13)
(230.408 -1.36133e-13 1.36133e-13)
(231.584 -1.20296e-13 1.20296e-13)
(232.77 -1.05998e-13 1.05998e-13)
(233.965 -9.37068e-14 9.37068e-14)
(235.171 -8.44483e-14 8.44483e-14)
(236.387 -5.85836e-14 5.85836e-14)
(237.613 -4.2076e-14 4.2076e-14)
(238.851 -2.13429e-14 2.13429e-14)
(240.099 -1.18051e-14 1.18051e-14)
(241.359 -2.91987e-15 2.91987e-15)
(242.631 5.15274e-15 -5.15274e-15)
(243.914 1.22126e-14 -1.22126e-14)
(245.209 1.77571e-14 -1.77571e-14)
(246.517 2.05985e-14 -2.05985e-14)
(247.838 1.79526e-14 -1.79526e-14)
(249.171 9.43204e-15 -9.43204e-15)
(250.517 -2.21148e-15 2.21148e-15)
(251.877 -4.83238e-16 4.83238e-16)
(253.251 -3.19622e-15 3.19622e-15)
(254.638 -4.70332e-16 4.70332e-16)
(256.04 -4.51956e-16 4.51956e-16)
(257.456 0 1.0625e-34)
(258.887 1.40248e-15 -1.40248e-15)
(260.333 1.13669e-14 -1.13669e-14)
(261.794 1.07001e-14 -1.07001e-14)
(263.27 8.82678e-16 -8.82678e-16)
(264.763 1.31156e-15 -1.31156e-15)
(266.271 0 9.42321e-35)
(267.796 0 0)
(269.337 -8.27133e-15 8.27133e-15)
(270.894 -1.23647e-14 1.23647e-14)
(272.469 -1.11867e-14 1.11867e-14)
(274.061 -6.72587e-15 6.72587e-15)
(275.67 -1.04696e-14 1.04696e-14)
(277.297 -6.10653e-15 6.10653e-15)
(278.942 -1.14196e-15 1.14196e-15)
(280.605 2.48907e-15 -2.48907e-15)
(282.286 -1.83804e-15 1.83804e-15)
(283.986 0 6.96384e-35)
(285.704 0 0)
(287.442 0 6.27856e-35)
(289.198 -3.5069e-15 3.5069e-15)
(290.974 -4.09292e-16 4.09292e-16)
(292.768 -4.91379e-15 4.91379e-15)
(294.583 -6.16038e-15 6.16038e-15)
(296.417 -6.32508e-17 6.32508e-17)
(298.271 6.922e-16 -6.922e-16)
(300.145 0 5.4826e-35)
(302.039 0 0)
(303.953 -9.64717e-15 9.64717e-15)
(305.887 -1.88829e-14 1.88829e-14)
(307.842 -1.64787e-14 1.64787e-14)
(309.817 -1.21793e-14 1.21793e-14)
(311.813 -8.22369e-15 8.22369e-15)
(313.829 -4.71042e-15 4.71042e-15)
(315.866 3.21063e-15 -3.21063e-15)
(317.923 6.82863e-16 -6.82863e-16)
(320.001 -5.94839e-16 5.94839e-16)
(322.099 -3.13069e-16 3.13069e-16)
(324.218 -3.29129e-15 3.29129e-15)
(326.358 -1.2877e-14 1.2877e-14)
(328.518 -2.17594e-14 2.17594e-14)
(330.699 -2.87648e-14 2.87648e-14)
(332.9 -2.67952e-14 2.67952e-14)
(335.121 -3.43268e-14 3.43268e-14)
(337.363 -3.92119e-14 3.92119e-14)
(339.624 -3.52656e-14 3.52656e-14)
(341.906 -3.14409e-14 3.14409e-14)
(344.208 -2.7316e-14 2.7316e-14)
(346.53 -2.00477e-14 2.00477e-14)
(348.871 -2.06798e-14 2.06798e-14)
(351.231 -1.9172e-14 1.9172e-14)
(353.611 -1.72968e-14 1.72968e-14)
(356.01 -1.56264e-14 1.56264e-14)
(358.428 -2.17602e-14 2.17602e-14)
(360.865 -2.63201e-14 2.63201e-14)
(363.321 -2.34736e-14 2.34736e-14)
(365.797 -2.07662e-14 2.07662e-14)
(368.29 -1.81908e-14 1.81908e-14)
(370.801 -1.57397e-14 1.57397e-14)
(373.33 -1.33855e-14 1.33855e-14)
(375.876 -1.09117e-14 1.09117e-14)
(378.439 -1.29848e-14 1.29848e-14)
(381.018 -9.12619e-15 9.12619e-15)
(383.613 -5.45012e-15 5.45012e-15)
(386.223 -1.77927e-15 1.77927e-15)
(388.846 2.66097e-16 -2.66097e-16)
(391.483 3.05885e-15 -3.05885e-15)
(394.13 1.14326e-15 -1.14326e-15)
(396.785 -1.73596e-15 1.73596e-15)
(399.444 -2.47697e-15 2.47697e-15)
(402.1 -5.2383e-15 5.2383e-15)
(404.744 -7.58286e-15 7.58286e-15)
(407.361 -4.8189e-15 4.8189e-15)
(409.927 -4.58617e-15 4.58617e-15)
(412.406 -2.72824e-15 2.72824e-15)
(414.741 -2.50246e-16 2.50246e-16)
(416.839 0 2.41655e-35)
(418.552 -2.40222e-15 2.40222e-15)
(419.644 -4.66875e-15 4.66875e-15)
(419.732 -5.3606e-15 5.3606e-15)
(418.203 -7.5247e-15 7.5247e-15)
(414.066 -6.20608e-15 6.20608e-15)
(405.754 -5.62093e-15 5.62093e-15)
(390.849 -8.13609e-15 8.13609e-15)
(365.83 -5.81031e-15 5.81031e-15)
(326.227 -6.87588e-15 6.87588e-15)
(268.138 -4.75502e-15 4.75502e-15)
(192.652 -2.9506e-16 2.9506e-16)
(112.45 0 -8.10466e-38)
(50.1335 0 1.55874e-38)
(17.4359 -7.34581e-16 7.34581e-16)
(5.2407 -4.77713e-15 4.77713e-15)
(1.4842 -5.68654e-15 5.68654e-15)
(0.411214 -9.74123e-15 9.74123e-15)
(0.112809 -1.05268e-14 1.05268e-14)
(0.0307493 -8.07522e-15 8.07522e-15)
(0.00833647 -2.43326e-15 2.43326e-15)
(0.00224864 0 0)
(0.000603534 0 0)
(0.000161196 1.56953e-15 -1.56953e-15)
(4.28448e-05 2.71733e-18 -2.71733e-18)
(1.13332e-05 1.55474e-15 -1.55474e-15)
(2.98358e-06 0 0)
(7.81741e-07 0 0)
(2.03858e-07 -1.52918e-15 1.52918e-15)
(5.29053e-08 0 0)
(1.36603e-08 0 0)
(3.5051e-09 0 0)
(8.90594e-10 2.9967e-15 -2.9967e-15)
(2.23126e-10 2.98749e-15 -2.98749e-15)
(5.91777e-11 8.73602e-18 -8.73602e-18)
(2.55963e-11 0 0)
(9.8116e-12 0 0)
(-5.95888e-12 1.46029e-15 -1.46029e-15)
(-1.13282e-11 0 0)
(6.63389e-13 0 0)
(1.99788e-11 0 0)
(3.07676e-11 0 0)
(2.62229e-11 0 0)
(1.91281e-11 0 0)
(1.9719e-11 0 0)
(2.19124e-11 0 0)
(3.48906e-11 5.96115e-16 -5.96115e-16)
(4.59081e-11 3.97407e-15 -3.97407e-15)
(3.53624e-11 1.01029e-14 -1.01029e-14)
(2.54707e-11 1.34449e-14 -1.34449e-14)
(2.87959e-11 1.4026e-14 -1.4026e-14)
(2.12506e-11 6.41929e-15 -6.41929e-15)
(8.17224e-12 1.56298e-15 -1.56298e-15)
(1.12536e-12 -5.67529e-16 5.67529e-16)
(-1.63772e-12 0 0)
(5.98095e-12 0 0)
(5.23316e-12 0 0)
(-3.64059e-12 0 0)
(2.02866e-12 0 0)
(5.02529e-12 0 0)
(-2.88964e-12 0 0)
(-1.25848e-11 0 0)
(-5.92284e-12 -8.63535e-16 8.63535e-16)
(1.72851e-11 8.52384e-16 -8.52384e-16)
(3.42911e-11 0 0)
(4.46985e-11 0 0)
(2.86196e-11 -1.26737e-15 1.26737e-15)
(1.5777e-11 -4.35249e-18 4.35249e-18)
(1.25603e-11 -1.2575e-15 1.2575e-15)
(-2.01197e-13 -4.07145e-18 4.07145e-18)
(-1.56087e-11 -1.24493e-15 1.24493e-15)
(-2.37724e-11 0 0)
(-1.05772e-11 -8.22031e-16 8.22031e-16)
(-3.60387e-12 8.1625e-16 -8.1625e-16)
(-7.98366e-12 0 0)
(-3.25604e-11 1.21615e-15 -1.21615e-15)
(-3.49493e-11 1.86864e-18 -1.86864e-18)
(-2.33736e-11 1.20395e-15 -1.20395e-15)
(-7.41656e-12 0 0)
(1.53299e-11 7.96097e-16 -7.96097e-16)
(2.94457e-11 -7.90007e-16 7.90007e-16)
(3.31349e-11 0 0)
(1.91867e-11 -9.22231e-16 9.22231e-16)
(2.0069e-12 -4.1856e-15 4.1856e-15)
(2.19741e-12 -9.76724e-15 9.76724e-15)
(1.41583e-11 -8.35237e-15 8.35237e-15)
(-4.58199e-12 0 0)
(-3.78705e-11 8.27219e-15 -8.27219e-15)
(-3.49263e-11 9.62853e-15 -9.62853e-15)
(-1.81666e-11 4.13094e-15 -4.13094e-15)
(-1.12897e-11 9.27119e-16 -9.27119e-16)
(1.66462e-11 0 0)
(4.2744e-11 9.54766e-16 -9.54766e-16)
(4.60382e-11 4.14423e-15 -4.14423e-15)
(2.38568e-11 6.24716e-16 -6.24716e-16)
(1.97465e-11 -1.86578e-15 1.86578e-15)
(2.6536e-11 -6.55666e-15 6.55666e-15)
(1.62977e-11 -4.62021e-15 4.62021e-15)
(1.80198e-11 -4.88407e-15 4.88407e-15)
(1.69983e-11 -7.32921e-15 7.32921e-15)
(1.29323e-11 -1.19373e-14 1.19373e-14)
(1.18463e-11 -1.86892e-14 1.86892e-14)
(1.0735e-11 -2.70981e-14 2.70981e-14)
(-6.25008e-12 -3.00982e-14 3.00982e-14)
(-2.25797e-11 -3.03784e-14 3.03784e-14)
(-2.88202e-11 -2.69862e-14 2.69862e-14)
(-3.80618e-11 -1.73257e-14 1.73257e-14)
(-3.4355e-11 -9.81422e-15 9.81422e-15)
(-2.04351e-11 -4.43531e-15 4.43531e-15)
(-1.48845e-11 -1.16982e-15 1.16982e-15)
(5.50934e-13 0 0)
(2.65267e-11 0 0)
(2.01483e-11 0 0)
(7.30989e-12 0 0)
(-2.64059e-12 0 0)
(-3.27725e-12 6.73757e-16 -6.73757e-16)
(6.7258e-12 3.28885e-15 -3.28885e-15)
(-8.61605e-12 -1.70447e-16 1.70447e-16)
(-3.02768e-11 -5.62472e-15 5.62472e-15)
(-3.00915e-11 -5.04451e-15 5.04451e-15)
(-1.46089e-11 -6.46144e-15 6.46144e-15)
(-5.3421e-12 -1.91121e-15 1.91121e-15)
(-7.37424e-12 6.41744e-16 -6.41744e-16)
(-1.78255e-11 3.70602e-15 -3.70602e-15)
(-3.15647e-11 8.70948e-16 -8.70948e-16)
(-2.74051e-11 0 0)
(-9.72628e-12 0 0)
(-1.32048e-11 -3.6314e-16 3.6314e-16)
(-2.10082e-11 -2.65384e-15 2.65384e-15)
(-3.29536e-12 -6.85685e-15 6.85685e-15)
(1.81646e-11 -5.29998e-15 5.29998e-15)
(2.68876e-11 -9.46812e-15 9.46812e-15)
(1.20872e-11 -1.55182e-14 1.55182e-14)
(-1.21391e-11 -2.34341e-14 2.34341e-14)
(-2.05666e-11 -2.56796e-14 2.56796e-14)
(-1.87463e-11 -2.37936e-14 2.37936e-14)
(-4.62706e-12 -1.63265e-14 1.63265e-14)
(1.51447e-11 -1.07494e-14 1.07494e-14)
(3.06922e-11 -7.04789e-15 7.04789e-15)
(4.27873e-11 -5.20593e-15 5.20593e-15)
(4.14945e-11 -5.20845e-15 5.20845e-15)
(3.12097e-11 -7.04093e-15 7.04093e-15)
(1.91478e-11 -3.3968e-15 3.3968e-15)
(1.17891e-11 -1.58105e-15 1.58105e-15)
)
;

boundaryField
{
    wedge0
    {
        type            wedge;
    }
    wedge1
    {
        type            wedge;
    }
    wedge2
    {
        type            wedge;
    }
    wedge3
    {
        type            wedge;
    }
    outlet
    {
        type            zeroGradient;
    }
    defaultFaces
    {
        type            empty;
    }
}


// ************************************************************************* //
