/*--------------------------------*- C++ -*----------------------------------*\
| =========                 |                                                 |
| \\      /  F ield         | OpenFOAM: The Open Source CFD Toolbox           |
|  \\    /   O peration     | Version:  2312                                  |
|   \\  /    A nd           | Website:  www.openfoam.com                      |
|    \\/     M anipulation  |                                                 |
\*---------------------------------------------------------------------------*/
FoamFile
{
    version     2.0;
    format      ascii;
    arch        "LSB;label=32;scalar=64";
    class       volScalarField;
    location    "0.06";
    object      p;
}
// * * * * * * * * * * * * * * * * * * * * * * * * * * * * * * * * * * * * * //

dimensions      [1 -1 -2 0 0 0 0];

internalField   nonuniform List<scalar> 
100
(
28711.9
28548.9
28467.1
28210.9
28170.3
27874.7
27875.1
27553.7
27569.6
27261.1
27240.3
27009.3
26876.2
26805.8
26474.2
26648.5
26042.2
26523.6
25600.7
26405
25181.8
26258.1
24821.4
26050.7
24545.4
25767.4
24357.6
25418.9
24236.3
25038.1
24145.2
24664.9
24050
24329.1
23932
24042.8
23790.3
23803.1
23634.8
23600.8
23478.2
23427.2
23330.6
23277.6
23198.2
23150
23084.6
23044.2
22991.7
22960.5
22920
22898.6
22869.4
22857.7
22838.7
22836.2
22826.7
22833.1
22833.4
22850.6
22865.8
22905.1
22958.6
23065.8
23242.1
23562.2
24081.4
24884.7
25963.3
27248.2
28551.1
29722.4
30638.4
31309.2
31752.1
32053
32238.6
32374.2
32459.2
32535.1
32586.6
32643.6
32685.9
32738.1
32779.3
32831.6
32874.3
32927.8
32972.3
33027.3
33073.1
33129
33174.9
33231.1
33275.6
33331.1
33373.2
33427
33466.1
33510.9
)
;

boundaryField
{
    sides
    {
        type            zeroGradient;
    }
    empty
    {
        type            empty;
    }
}


// ************************************************************************* //
