/*--------------------------------*- C++ -*----------------------------------*\
| =========                 |                                                 |
| \\      /  F ield         | OpenFOAM: The Open Source CFD Toolbox           |
|  \\    /   O peration     | Version:  2312                                  |
|   \\  /    A nd           | Website:  www.openfoam.com                      |
|    \\/     M anipulation  |                                                 |
\*---------------------------------------------------------------------------*/
FoamFile
{
    version     2.0;
    format      ascii;
    arch        "LSB;label=32;scalar=64";
    class       volScalarField;
    location    "0.06";
    object      rho;
}
// * * * * * * * * * * * * * * * * * * * * * * * * * * * * * * * * * * * * * //

dimensions      [1 -3 0 0 0 0 0];

internalField   nonuniform List<scalar> 
100
(
0.442673
0.441963
0.440673
0.439442
0.438037
0.436764
0.435336
0.434019
0.432635
0.431244
0.429972
0.428461
0.427352
0.425688
0.424764
0.42294
0.422175
0.420231
0.419541
0.417565
0.416807
0.414928
0.41393
0.412275
0.410893
0.409527
0.407723
0.406602
0.404466
0.40346
0.401174
0.400131
0.397884
0.396713
0.394638
0.393342
0.391499
0.390152
0.388551
0.387252
0.385887
0.384722
0.383591
0.382614
0.381719
0.380958
0.380297
0.379762
0.379329
0.379013
0.378796
0.378685
0.378666
0.378741
0.378898
0.379137
0.379452
0.379842
0.380309
0.38087
0.381553
0.382428
0.38363
0.385413
0.388222
0.392759
0.399903
0.410355
0.424015
0.439606
0.455102
0.468679
0.479437
0.4874
0.493126
0.497278
0.500415
0.502929
0.505069
0.506986
0.508761
0.510439
0.512039
0.513569
0.515028
0.516418
0.517732
0.518973
0.520137
0.521228
0.522247
0.523197
0.524083
0.524908
0.525678
0.526394
0.527064
0.527688
0.528278
0.528691
)
;

boundaryField
{
    sides
    {
        type            zeroGradient;
    }
    empty
    {
        type            empty;
    }
}


// ************************************************************************* //
