/*--------------------------------*- C++ -*----------------------------------*\
| =========                 |                                                 |
| \\      /  F ield         | OpenFOAM: The Open Source CFD Toolbox           |
|  \\    /   O peration     | Version:  2312                                  |
|   \\  /    A nd           | Website:  www.openfoam.com                      |
|    \\/     M anipulation  |                                                 |
\*---------------------------------------------------------------------------*/
FoamFile
{
    version     2.0;
    format      ascii;
    arch        "LSB;label=32;scalar=64";
    class       volScalarField;
    location    "0.026";
    object      rho;
}
// * * * * * * * * * * * * * * * * * * * * * * * * * * * * * * * * * * * * * //

dimensions      [1 -3 0 0 0 0 0];

internalField   nonuniform List<scalar> 
100
(
0.716033
0.712741
0.708774
0.705086
0.701472
0.697968
0.69452
0.691062
0.687518
0.683795
0.679864
0.675609
0.67117
0.666291
0.661428
0.656023
0.650854
0.64521
0.639727
0.634176
0.628393
0.623016
0.617161
0.611793
0.606096
0.600673
0.595152
0.589741
0.584347
0.579008
0.573715
0.568474
0.563286
0.558154
0.553081
0.54807
0.543125
0.53825
0.533451
0.528733
0.524103
0.519567
0.515136
0.510818
0.506627
0.502574
0.498675
0.494948
0.49141
0.488086
0.484994
0.48216
0.479597
0.477343
0.475375
0.473766
0.472399
0.471446
0.470596
0.470232
0.469738
0.469824
0.469543
0.469878
0.469748
0.470074
0.47014
0.470274
0.470574
0.470463
0.470909
0.470656
0.47115
0.470816
0.471318
0.470807
0.471535
0.470766
0.471954
0.470736
0.472361
0.471001
0.473197
0.472765
0.47523
0.476499
0.478605
0.482339
0.485002
0.492586
0.498923
0.512498
0.526361
0.54535
0.562592
0.577428
0.58775
0.591947
0.592975
0.594004
)
;

boundaryField
{
    sides
    {
        type            zeroGradient;
    }
    empty
    {
        type            empty;
    }
}


// ************************************************************************* //
