/*--------------------------------*- C++ -*----------------------------------*\
| =========                 |                                                 |
| \\      /  F ield         | OpenFOAM: The Open Source CFD Toolbox           |
|  \\    /   O peration     | Version:  2312                                  |
|   \\  /    A nd           | Website:  www.openfoam.com                      |
|    \\/     M anipulation  |                                                 |
\*---------------------------------------------------------------------------*/
FoamFile
{
    version     2.0;
    format      ascii;
    arch        "LSB;label=32;scalar=64";
    class       volScalarField;
    location    "0.026";
    object      thermo:e;
}
// * * * * * * * * * * * * * * * * * * * * * * * * * * * * * * * * * * * * * //

dimensions      [0 2 -2 0 0 0 0];

internalField   nonuniform List<scalar> 
100
(
189294
188553
187307
186146
184924
183684
182417
181171
179905
178773
177528
176678
175347
174990
173351
173644
171584
172382
170179
170953
169131
169398
168185
167932
167133
166619
165980
165393
164791
164196
163602
163011
162422
161836
161254
160676
160102
159533
158969
158412
157862
157319
156786
156263
155751
155254
154771
154307
153863
153440
153046
152674
152351
152031
151807
151518
151448
151121
151299
150803
151362
150524
151576
150290
151819
150184
151943
150278
151861
150567
151627
150954
151313
151385
150933
151966
150335
152807
149330
154069
148052
155684
146767
157035
146087
157740
146949
157668
149279
156818
152538
156975
157342
160167
162354
164108
164922
166744
167302
167379
)
;

boundaryField
{
    sides
    {
        type            zeroGradient;
    }
    empty
    {
        type            empty;
    }
}


// ************************************************************************* //
