/*--------------------------------*- C++ -*----------------------------------*\
| =========                 |                                                 |
| \\      /  F ield         | OpenFOAM: The Open Source CFD Toolbox           |
|  \\    /   O peration     | Version:  2312                                  |
|   \\  /    A nd           | Website:  www.openfoam.com                      |
|    \\/     M anipulation  |                                                 |
\*---------------------------------------------------------------------------*/
FoamFile
{
    version     2.0;
    format      ascii;
    arch        "LSB;label=32;scalar=64";
    class       volVectorField;
    location    "0.026";
    object      U;
}
// * * * * * * * * * * * * * * * * * * * * * * * * * * * * * * * * * * * * * //

dimensions      [0 1 -1 0 0 0 0];

internalField   nonuniform List<vector> 
100
(
(111.42 0 0)
(114.339 0 0)
(117.702 0 0)
(120.975 0 0)
(124.276 0 0)
(127.572 0 0)
(130.86 0 0)
(134.148 0 0)
(137.407 0 0)
(140.693 0 0)
(143.908 0 0)
(147.233 0 0)
(150.389 0 0)
(153.791 0 0)
(156.899 0 0)
(160.345 0 0)
(163.494 0 0)
(166.859 0 0)
(170.177 0 0)
(173.366 0 0)
(176.848 0 0)
(179.951 0 0)
(183.437 0 0)
(186.599 0 0)
(189.99 0 0)
(193.233 0 0)
(196.551 0 0)
(199.827 0 0)
(203.111 0 0)
(206.384 0 0)
(209.651 0 0)
(212.909 0 0)
(216.157 0 0)
(219.394 0 0)
(222.619 0 0)
(225.828 0 0)
(229.021 0 0)
(232.195 0 0)
(235.346 0 0)
(238.471 0 0)
(241.566 0 0)
(244.625 0 0)
(247.644 0 0)
(250.614 0 0)
(253.528 0 0)
(256.376 0 0)
(259.147 0 0)
(261.829 0 0)
(264.408 0 0)
(266.868 0 0)
(269.195 0 0)
(271.367 0 0)
(273.377 0 0)
(275.194 0 0)
(276.838 0 0)
(278.248 0 0)
(279.516 0 0)
(280.503 0 0)
(281.439 0 0)
(282.037 0 0)
(282.731 0 0)
(283.029 0 0)
(283.555 0 0)
(283.682 0 0)
(284.058 0 0)
(284.164 0 0)
(284.363 0 0)
(284.553 0 0)
(284.565 0 0)
(284.85 0 0)
(284.738 0 0)
(285.063 0 0)
(284.885 0 0)
(285.219 0 0)
(284.963 0 0)
(285.392 0 0)
(284.96 0 0)
(285.573 0 0)
(284.813 0 0)
(285.62 0 0)
(284.527 0 0)
(285.342 0 0)
(284.02 0 0)
(284.227 0 0)
(282.796 0 0)
(281.721 0 0)
(280.412 0 0)
(277.781 0 0)
(276.257 0 0)
(271.466 0 0)
(267.573 0 0)
(259.075 0 0)
(250.72 0 0)
(240.067 0 0)
(230.977 0 0)
(223.802 0 0)
(218.554 0 0)
(215.79 0 0)
(215.011 0 0)
(214.709 0 0)
)
;

boundaryField
{
    sides
    {
        type            mywaveTransmissive;
        gamma           1.4;
        value           nonuniform List<vector> 2((214.688 0 0) (110.24 0 0));
    }
    empty
    {
        type            empty;
    }
}


// ************************************************************************* //
